# vtk DataFile Version 5.1
vtk output
ASCII
DATASET UNSTRUCTURED_GRID
POINTS 12669 double
-50.1 0 0 -0.1 0 0 0.1 0 0 
25.1 0 0 25.1 10 0 0.1 10 0 
-0.1 10 0 -50.1 10 0 -49.447025829 0 0 
-48.801794431 0 0 -48.164214001 0 0 -47.534193818 0 0 
-46.911644227 0 0 -46.296476648 0 0 -45.688603543 0 0 
-45.087938417 0 0 -44.494395805 0 0 -43.90789125 0 0 
-43.328341294 0 0 -42.755663471 0 0 -42.189776295 0 0 
-41.630599242 0 0 -41.078052747 0 0 -40.532058186 0 0 
-39.992537867 0 0 -39.459415023 0 0 -38.932613793 0 0 
-38.412059219 0 0 -37.897677231 0 0 -37.389394634 0 0 
-36.887139106 0 0 -36.390839174 0 0 -35.900424222 0 0 
-35.415824471 0 0 -34.936970957 0 0 -34.463795547 0 0 
-33.996230916 0 0 -33.534210529 0 0 -33.077668642 0 0 
-32.626540297 0 0 -32.180761299 0 0 -31.740268219 0 0 
-31.304998377 0 0 -30.874889834 0 0 -30.449881395 0 0 
-30.029912583 0 0 -29.614923635 0 0 -29.204855504 0 0 
-28.799649841 0 0 -28.399248992 0 0 -28.00359598 0 0 
-27.612634502 0 0 -27.226308931 0 0 -26.844564298 0 0 
-26.467346282 0 0 -26.094601209 0 0 -25.726276037 0 0 
-25.362318354 0 0 -25.002676375 0 0 -24.647298925 0 0 
-24.296135438 0 0 -23.949135946 0 0 -23.606251074 0 0 
-23.267432028 0 0 -22.932630599 0 0 -22.60179915 0 0 
-22.274890601 0 0 -21.951858437 0 0 -21.632656693 0 0 
-21.317239952 0 0 -21.005563333 0 0 -20.697582484 0 0 
-20.393253579 0 0 -20.092533314 0 0 -19.795378905 0 0 
-19.501748069 0 0 -19.211599017 0 0 -18.924890469 0 0 
-18.641581628 0 0 -18.361632179 0 0 -18.085002288 0 0 
-17.811652595 0 0 -17.541544203 0 0 -17.274638676 0 0 
-17.010898038 0 0 -16.750284759 0 0 -16.492761755 0 0 
-16.238292386 0 0 -15.986840441 0 0 -15.73837014 0 0 
-15.492846127 0 0 -15.250233467 0 0 -15.010497637 0 0 
-14.773604522 0 0 -14.539520416 0 0 -14.308212012 0 0 
-14.079646394 0 0 -13.853791037 0 0 -13.630613808 0 0 
-13.41008295 0 0 -13.192167083 0 0 -12.9768352 0 0 
-12.764056659 0 0 -12.553801187 0 0 -12.346038864 0 0 
-12.140740121 0 0 -11.937875747 0 0 -11.737416881 0 0 
-11.539335 0 0 -11.343601917 0 0 -11.15018978 0 0 
-10.959071065 0 0 -10.770218579 0 0 -10.583605452 0 0 
-10.399205132 0 0 -10.216991374 0 0 -10.03693825 0 0 
-9.8590201479 0 0 -9.683211749 0 0 -9.5094880351 0 0 
-9.3378242827 0 0 -9.1681960658 0 0 -9.0005792535 0 0 
-8.8349499936 0 0 -8.6712847156 0 0 -8.5095601319 0 0 
-8.3497532322 0 0 -8.1918412761 0 0 -8.0358017916 0 0 
-7.8816125772 0 0 -7.7292516959 0 0 -7.5786974644 0 0 
-7.4299284603 0 0 -7.2829235159 0 0 -7.1376617121 0 0 
-6.9941223817 0 0 -6.8522850987 0 0 -6.7121296816 0 0 
-6.5736361876 0 0 -6.4367849066 0 0 -6.3015563697 0 0 
-6.1679313339 0 0 -6.0358907817 0 0 -5.9054159287 0 0 
-5.7764882093 0 0 -5.6490892763 0 0 -5.5232010041 0 0 
-5.3988054792 0 0 -5.2758849997 0 0 -5.1544220747 0 0 
-5.0343994192 0 0 -4.915799958 0 0 -4.7986068166 0 0 
-4.6828033163 0 0 -4.5683729784 0 0 -4.4552995239 0 0 
-4.3435668643 0 0 -4.2331590971 0 0 -4.1240605105 0 0 
-4.016255583 0 0 -3.9097289743 0 0 -3.8044655262 0 0 
-3.7004502618 0 0 -3.5976683776 0 0 -3.4961052517 0 0 
-3.3957464319 0 0 -3.2965776352 0 0 -3.1985847571 0 0 
-3.1017538501 0 0 -3.006071133 0 0 -2.911522996 0 0 
-2.8180959831 0 0 -2.7257767973 0 0 -2.6345523061 0 0 
-2.5444095283 0 0 -2.4553356352 0 0 -2.3673179555 0 0 
-2.2803439674 0 0 -2.1944012905 0 0 -2.1094776961 0 0 
-2.0255611029 0 0 -1.9426395651 0 0 -1.8607012872 0 0 
-1.7797346108 0 0 -1.6997280122 0 0 -1.6206701073 0 0 
-1.5425496489 0 0 -1.4653555233 0 0 -1.3890767423 0 0 
-1.3137024497 0 0 -1.2392219223 0 0 -1.1656245665 0 0 
-1.0928999071 0 0 -1.0210375925 0 0 -0.95002740126 0 0 
-0.87985922981 0 0 -0.81052308986 0 0 -0.74200911888 0 0 
-0.67430756817 0 0 -0.60740880042 0 0 -0.54130330004 0 0 
-0.47598166168 0 0 -0.41143458748 0 0 -0.34765289347 0 0 
-0.28462750229 0 0 -0.22234944532 0 0 -0.16080986428 0 0 
-0.075 0 0 -0.05 0 0 -0.025 0 0 
-2.6574575873e-13 0 0 0.025 0 0 0.05 0 0 
0.075 0 0 0.15779696894 0 0 0.21703886108 0 0 
0.27776180117 0 0 0.340002814 0 0 0.40379985127 0 0 
0.46919181481 0 0 0.53621857657 0 0 0.60492100866 0 0 
0.67534100109 0 0 0.74752148987 0 0 0.82150649092 0 0 
0.89734111706 0 0 0.97507160995 0 0 1.0547453643 0 0 
1.1364109627 0 0 1.2201182027 0 0 1.3059181251 0 0 
1.3938630446 0 0 1.4840065849 0 0 1.5764037133 0 0 
1.6711107699 0 0 1.7681855044 0 0 1.86768711 0 0 
1.9696762586 0 0 2.0742151333 0 0 2.1813674765 0 0 
2.2911986267 0 0 2.4037755563 0 0 2.5191669124 0 0 
2.6374430544 0 0 2.7586760979 0 0 2.8829399663 0 0 
3.0103104305 0 0 3.1408651546 0 0 3.2746837503 0 0 
3.4118478133 0 0 3.5524409773 0 0 3.6965489696 0 0 
3.8442596609 0 0 3.9956631168 0 0 4.1508516574 0 0 
4.3099199146 0 0 4.4729648788 0 0 4.6400859659 0 0 
4.8113850794 0 0 4.9869666698 0 0 5.1669378027 0 0 
5.3514082154 0 0 5.5404903866 0 0 5.7342996132 0 0 
5.9329540737 0 0 6.1365748932 0 0 6.3452862319 0 0 
6.5592153533 0 0 6.7784927017 0 0 7.0032519874 0 0 
7.2336302578 0 0 7.4697679819 0 0 7.7118091476 0 0 
7.9599013412 0 0 8.2141958396 0 0 8.4748477034 0 0 
8.7420158642 0 0 9.0158632266 0 0 9.2965567704 0 0 
9.5842676529 0 0 9.8791713075 0 0 10.181447556 0 0 
10.491280715 0 0 10.8088597 0 0 11.134378158 0 0 
11.468034578 0 0 11.810032411 0 0 12.16058019 0 0 
12.519891663 0 0 12.888185921 0 0 13.265687534 0 0 
13.652626688 0 0 14.049239319 0 0 14.455767267 0 0 
14.872458413 0 0 15.299566839 0 0 15.737352979 0 0 
16.186083771 0 0 16.646032833 0 0 17.117480623 0 0 
17.600714604 0 0 18.096029435 0 0 18.603727139 0 0 
19.124117281 0 0 19.657517178 0 0 20.204252075 0 0 
20.764655347 0 0 21.339068701 0 0 21.927842387 0 0 
22.531335412 0 0 23.149915765 0 0 23.783960627 0 0 
24.433856613 0 0 25.1 0.25 0 25.1 0.5 0 
25.1 0.75 0 25.1 1 0 25.1 1.25 0 
25.1 1.5 0 25.1 1.75 0 25.1 2 0 
25.1 2.25 0 25.1 2.5 0 25.1 2.75 0 
25.1 3 0 25.1 3.25 0 25.1 3.5 0 
25.1 3.75 0 25.1 4 0 25.1 4.25 0 
25.1 4.5 0 25.1 4.75 0 25.1 5 0 
25.1 5.25 0 25.1 5.5 0 25.1 5.75 0 
25.1 6 0 25.1 6.25 0 25.1 6.5 0 
25.1 6.75 0 25.1 7 0 25.1 7.25 0 
25.1 7.5 0 25.1 7.75 0 25.1 8 0 
25.1 8.25 0 25.1 8.5 0 25.1 8.75 0 
25.1 9 0 25.1 9.25 0 25.1 9.5 0 
25.1 9.75 0 24.433856617 10 0 23.78396063 10 0 
23.149915768 10 0 22.531335414 10 0 21.927842388 10 0 
21.339068702 10 0 20.764655347 10 0 20.204252075 10 0 
19.657517177 10 0 19.12411728 10 0 18.603727137 10 0 
18.096029434 10 0 17.600714602 10 0 17.11748062 10 0 
16.64603283 10 0 16.186083768 10 0 15.737352976 10 0 
15.299566836 10 0 14.872458409 10 0 14.455767263 10 0 
14.049239315 10 0 13.652626683 10 0 13.265687529 10 0 
12.888185916 10 0 12.519891657 10 0 12.160580184 10 0 
11.810032405 10 0 11.468034572 10 0 11.134378152 10 0 
10.808859694 10 0 10.491280708 10 0 10.18144755 10 0 
9.8791713011 10 0 9.5842676463 10 0 9.2965567637 10 0 
9.0158632199 10 0 8.7420158574 10 0 8.4748476965 10 0 
8.2141958327 10 0 7.9599013342 10 0 7.7118091406 10 0 
7.4697679749 10 0 7.2336302507 10 0 7.0032519803 10 0 
6.7784926946 10 0 6.5592153462 10 0 6.3452862247 10 0 
6.1365748861 10 0 5.9329540665 10 0 5.734299606 10 0 
5.5404903794 10 0 5.3514082083 10 0 5.1669377955 10 0 
4.9869666627 10 0 4.8113850723 10 0 4.6400859588 10 0 
4.4729648718 10 0 4.3099199076 10 0 4.1508516504 10 0 
3.9956631098 10 0 3.844259654 10 0 3.6965489627 10 0 
3.5524409705 10 0 3.4118478065 10 0 3.2746837435 10 0 
3.1408651479 10 0 3.0103104238 10 0 2.8829399597 10 0 
2.7586760914 10 0 2.6374430479 10 0 2.519166906 10 0 
2.4037755499 10 0 2.2911986204 10 0 2.1813674703 10 0 
2.0742151271 10 0 1.9696762525 10 0 1.8676871039 10 0 
1.7681854984 10 0 1.6711107639 10 0 1.5764037074 10 0 
1.4840065791 10 0 1.3938630388 10 0 1.3059181194 10 0 
1.2201181971 10 0 1.1364109572 10 0 1.0547453588 10 0 
0.97507160451 10 0 0.89734111169 10 0 0.82150648561 10 0 
0.74752148462 10 0 0.67534099591 10 0 0.60492100349 10 0 
0.53621857153 10 0 0.46919180983 10 0 0.40379984635 10 0 
0.34000280915 10 0 0.27776179638 10 0 0.21703885635 10 0 
0.15779696428 10 0 0.075 10 0 0.05 10 0 
0.025 10 0 2.6574575873e-13 10 0 -0.025 10 0 
-0.05 10 0 -0.075 10 0 -0.16080986428 10 0 
-0.22234944532 10 0 -0.28462750229 10 0 -0.34765289346 10 0 
-0.41143458748 10 0 -0.47598166167 10 0 -0.54130330004 10 0 
-0.60740880041 10 0 -0.67430756817 10 0 -0.74200911888 10 0 
-0.81052308986 10 0 -0.87985922981 10 0 -0.95002740126 10 0 
-1.0210375925 10 0 -1.0928999071 10 0 -1.1656245665 10 0 
-1.2392219222 10 0 -1.3137024497 10 0 -1.3890767423 10 0 
-1.4653555232 10 0 -1.5425496489 10 0 -1.6206701073 10 0 
-1.6997280122 10 0 -1.7797346108 10 0 -1.8607012872 10 0 
-1.9426395651 10 0 -2.0255611028 10 0 -2.1094776961 10 0 
-2.1944012905 10 0 -2.2803439674 10 0 -2.3673179555 10 0 
-2.4553356352 10 0 -2.5444095283 10 0 -2.6345523061 10 0 
-2.7257767973 10 0 -2.8180959831 10 0 -2.911522996 10 0 
-3.006071133 10 0 -3.10175385 10 0 -3.198584757 10 0 
-3.2965776351 10 0 -3.3957464319 10 0 -3.4961052517 10 0 
-3.5976683776 10 0 -3.7004502618 10 0 -3.8044655262 10 0 
-3.9097289743 10 0 -4.0162555829 10 0 -4.1240605105 10 0 
-4.2331590971 10 0 -4.3435668642 10 0 -4.4552995239 10 0 
-4.5683729784 10 0 -4.6828033163 10 0 -4.7986068166 10 0 
-4.9157999579 10 0 -5.0343994191 10 0 -5.1544220747 10 0 
-5.2758849997 10 0 -5.3988054792 10 0 -5.5232010041 10 0 
-5.6490892763 10 0 -5.7764882093 10 0 -5.9054159286 10 0 
-6.0358907816 10 0 -6.1679313339 10 0 -6.3015563697 10 0 
-6.4367849066 10 0 -6.5736361875 10 0 -6.7121296816 10 0 
-6.8522850987 10 0 -6.9941223816 10 0 -7.137661712 10 0 
-7.2829235158 10 0 -7.4299284603 10 0 -7.5786974644 10 0 
-7.7292516959 10 0 -7.8816125771 10 0 -8.0358017915 10 0 
-8.1918412761 10 0 -8.3497532322 10 0 -8.5095601319 10 0 
-8.6712847155 10 0 -8.8349499936 10 0 -9.0005792534 10 0 
-9.1681960657 10 0 -9.3378242826 10 0 -9.509488035 10 0 
-9.6832117489 10 0 -9.8590201478 10 0 -10.03693825 10 0 
-10.216991374 10 0 -10.399205132 10 0 -10.583605452 10 0 
-10.770218579 10 0 -10.959071065 10 0 -11.15018978 10 0 
-11.343601917 10 0 -11.539335 10 0 -11.737416881 10 0 
-11.937875747 10 0 -12.140740121 10 0 -12.346038863 10 0 
[...]
CELL_DATA 12320
FIELD FieldData 7
B_Stress_n_p_m2 1 12320 float
3.78243 3.87789 4.01137 4.18843 4.419 4.71377 5.08391 5.53969 6.08955 
6.73923 7.49134 8.34515 9.29669 10.339 11.4627 12.656 13.9057 15.1974 
16.516 17.8461 19.1722 20.4795 21.7537 22.9816 24.1512 25.2517 26.274 
27.2101 28.0537 28.7998 29.4449 29.9862 30.4222 30.7518 30.9746 31.0901 
31.0979 30.9972 30.7864 30.4619 3.69412 3.78782 3.91594 4.08604 4.30794 
4.59296 4.95284 5.39861 5.93946 6.58187 7.32907 8.18083 9.13347 10.1802 
11.3116 12.5159 13.7795 15.0878 16.4251 17.7756 19.1235 20.4533 21.7503 
23.0009 24.1925 25.3142 26.3564 27.3109 28.1713 28.9324 29.5906 30.1432 
30.5886 30.9259 31.1548 31.2749 31.2859 31.1872 30.977 30.6534 3.66359 
3.75522 3.87986 4.04518 4.26111 4.53924 4.89173 5.3301 5.86411 6.5008 
7.24388 8.0935 9.04625 10.0955 11.2317 12.443 13.7156 15.0347 16.3842 
17.748 19.1098 20.4538 21.765 23.0294 24.2343 25.3683 26.4218 27.3864 
28.2556 29.0243 29.6888 30.2465 30.6959 31.0362 31.2671 31.3884 31.4 
31.3013 31.0907 30.7664 3.61756 3.70683 3.82747 3.98726 4.19629 4.46649 
4.81047 5.24035 5.7665 6.39663 7.13502 7.98225 8.93523 9.98743 11.1294 
12.349 13.6324 14.9643 16.3284 17.708 19.0865 20.4477 21.7761 23.0573 
24.2784 25.4276 26.495 27.4723 28.3528 29.1312 29.8039 30.3683 30.8231 
31.1674 31.4012 31.5245 31.5371 31.4386 31.2276 30.9028 3.58065 3.66762 
3.78436 3.93868 4.14082 4.40298 4.7382 5.15916 5.6769 6.29977 7.03266 
7.87664 8.82895 9.88329 11.0302 12.2575 13.5511 14.8954 16.2737 17.6689 
19.0641 20.4424 21.7881 23.0864 24.3238 25.4885 26.5702 27.5604 28.4523 
29.2406 29.9216 30.4929 30.953 31.3015 31.5382 31.6634 31.677 31.5787 
31.3672 31.0415 3.54375 3.62847 3.74134 3.89019 4.08541 4.33944 4.66575 
5.07757 5.5866 6.20187 6.9289 7.76929 8.72066 9.7769 10.9286 12.1636 
13.4675 14.8243 16.2171 17.6284 19.0406 20.4366 21.8001 23.116 24.3703 
25.551 26.6475 27.651 28.5547 29.3533 30.043 30.6213 31.0871 31.4399 
31.6796 31.8067 31.8213 31.7232 31.5112 31.1846 3.50967 3.5922 3.70125 
3.84468 4.03297 4.27881 4.59605 4.99848 5.49844 6.10568 6.82638 7.66269 
8.61264 9.67038 10.8266 12.0689 13.3829 14.7523 16.1597 17.5871 19.0166 
20.4306 21.8123 23.146 24.4176 25.6146 26.7262 27.7435 28.6593 29.4683 
30.1668 30.7525 31.224 31.5811 31.8239 31.953 31.9686 31.8707 31.6582 
31.3305 3.47726 3.55766 3.66298 3.80107 3.98249 4.22013 4.52822 4.92107 
5.41171 6.01059 6.72458 7.55642 8.50459 9.5635 10.7239 11.9735 13.2975 
14.6794 16.1014 17.5452 18.9921 20.4243 21.8244 23.1764 24.4656 25.6792 
26.8062 27.8374 28.7655 29.5852 30.2927 30.8857 31.363 31.7245 31.9705 
32.1015 32.1182 32.0205 31.8074 31.4787 3.44678 3.52511 3.62678 3.75961 
3.93422 4.16367 4.46254 4.84567 5.32673 5.91692 6.62382 7.45079 8.39679 
9.45651 10.6208 11.8774 13.2114 14.6057 16.0424 17.5025 18.9672 20.4177 
21.8365 23.2069 24.514 25.7445 26.8871 27.9324 28.873 29.7035 30.4201 
31.0205 31.5037 31.8696 32.1187 32.2518 32.2694 32.1719 31.9583 31.6284 
3.41803 3.49436 3.59247 3.72014 3.88802 4.10933 4.39894 4.77221 5.24348 
5.82467 6.52412 7.34584 8.28928 9.34947 10.5174 11.7808 13.1245 14.5313 
15.9826 17.4593 18.9417 20.4109 21.8485 23.2376 24.5628 25.8104 26.9687 
28.0283 28.9816 29.823 30.5488 31.1567 31.6458 32.0161 32.2683 32.4033 
32.422 32.3246 32.1104 31.7794 3.39099 3.46538 3.56003 3.68265 3.8439 
4.05711 4.33745 4.70075 5.16201 5.73392 6.42556 7.24164 8.18215 9.24246 
10.4138 11.6837 13.037 14.4561 15.9222 17.4153 18.9157 20.4036 21.8603 
23.2683 24.6118 25.8766 27.051 28.125 29.0911 29.9435 30.6785 31.2938 
31.7888 32.1636 32.4189 32.5558 32.5754 32.4781 32.2633 31.9311 3.36557 
3.4381 3.52939 3.64708 3.80181 4.00698 4.27805 4.63129 5.08236 5.6447 
6.32819 7.13825 8.07543 9.13551 10.3099 11.5861 12.9488 14.3802 15.8609 
17.3707 18.8891 20.396 21.8719 23.299 24.6609 25.9432 27.1337 28.2224 
29.2013 30.0647 30.809 31.4319 31.9327 32.3118 32.5702 32.7091 32.7295 
32.6323 32.4169 32.0835 3.34172 3.41245 3.50048 3.61337 3.76169 3.95893 
4.22073 4.56384 5.00454 5.55704 6.23204 7.0357 7.96918 9.02866 10.2057 
11.4881 12.86 14.3036 15.799 17.3254 18.862 20.3878 21.8832 23.3296 
24.7101 26.0101 27.2169 28.3202 29.312 30.1866 30.9401 31.5705 32.0772 
32.4607 32.7221 32.8628 32.8842 32.787 32.5708 32.2362 3.31937 3.38838 
3.47326 3.58147 3.72352 3.91291 4.16549 4.4984 4.92857 5.47098 6.13716 
6.93403 7.86341 8.92193 10.1014 11.3896 12.7706 14.2262 15.7362 17.2794 
18.8342 20.3792 21.8942 23.36 24.7593 26.0771 27.3003 28.4184 29.4233 
30.309 31.0718 31.7098 32.2223 32.6101 32.8744 33.0169 33.0391 32.9419 
32.725 32.3891 3.29846 3.36582 3.44766 3.55133 3.68724 3.86889 4.1123 
4.43498 4.85447 5.38654 6.04357 6.83328 7.75817 8.81535 9.99692 11.2906 
12.6806 14.1481 15.6727 17.2326 18.8057 20.3701 21.9047 23.3901 24.8085 
26.1442 27.3839 28.5169 29.5349 30.4319 31.204 31.8494 32.3678 32.7598 
33.0271 33.1713 33.1942 33.097 32.8794 32.5422 3.27894 3.34471 3.42362 
3.5229 3.65282 3.82685 4.06114 4.37357 4.78226 5.30375 5.9513 6.73348 
7.65348 8.70893 9.89224 11.1912 12.5899 14.0693 15.6084 17.1851 18.7765 
20.3603 21.9149 23.4201 24.8576 26.2113 27.4678 28.6158 29.6469 30.5551 
31.3365 31.9894 32.5135 32.9098 33.1799 33.3258 33.3494 33.2521 33.0337 
32.6952 3.26074 3.325 3.40109 3.49611 3.62019 3.78673 4.01199 4.31416 
4.71193 5.22263 5.86039 6.63466 7.54937 8.60271 9.78741 11.0914 12.4985 
13.9896 15.5432 17.1367 18.7466 20.35 21.9246 23.4497 24.9065 26.2785 
27.5517 28.7148 29.7592 30.6786 31.4694 32.1297 32.6595 33.0599 33.3328 
33.4804 33.5046 33.4071 33.188 32.8481 3.24381 3.30661 3.38001 3.47091 
3.5893 3.74851 3.96483 4.25675 4.6435 5.1432 5.77086 6.53684 7.44587 
8.4967 9.68243 10.9911 12.4065 13.9092 15.4772 17.0875 18.7159 20.339 
21.9337 23.4789 24.9552 26.3456 27.6357 28.814 29.8716 30.8024 31.6025 
32.2702 32.8057 33.2102 33.4858 33.6349 33.6598 33.5621 33.3421 33.0009 
3.22808 3.28951 3.36031 3.44724 3.56012 3.71214 3.91962 4.20131 4.57697 
5.06547 5.68274 6.44007 7.343 8.39092 9.57733 10.8904 12.3138 13.8279 
15.4104 17.0374 18.6845 20.3273 21.9424 23.5078 25.0037 26.4126 27.7198 
28.9134 29.9843 30.9264 31.7358 32.4109 32.952 33.3605 33.6388 33.7893 
33.8147 33.7168 33.4959 33.1534 3.21351 3.27362 3.34195 3.42506 3.53259 
3.67758 3.87634 4.14785 4.51235 4.98946 5.59605 6.34436 7.24079 8.28541 
9.47211 10.7893 12.2205 13.7459 15.3426 16.9864 18.6522 20.3149 21.9505 
23.5363 25.052 26.4796 27.8039 29.0128 30.0972 31.0505 31.8692 32.5517 
33.0984 33.5108 33.7916 33.9436 33.9695 33.8713 33.6495 33.3055 3.20004 
3.25891 3.32486 3.40431 3.50666 3.64478 3.83496 4.09634 4.44963 4.91519 
5.51082 6.24975 7.13927 8.18017 9.36679 10.6877 12.1265 13.663 15.274 
16.9346 18.6191 20.3018 21.958 23.5644 25.1 26.5464 27.888 29.1123 
30.2101 31.1748 32.0028 32.6926 33.2447 33.6611 33.9444 34.0977 34.124 
34.0254 33.8027 33.4574 3.18762 3.2453 3.309 3.38493 3.48227 3.61371 
3.79545 4.04677 4.38882 4.84268 5.42708 6.15626 7.03847 8.07523 9.2614 
10.5857 12.0319 13.5793 15.2044 16.8818 18.5851 20.288 21.9649 23.592 
25.1477 26.613 27.972 29.2119 30.3231 31.2992 32.1364 32.8335 33.391 
33.8112 34.097 34.2516 34.2782 34.1792 33.9555 33.6088 3.17619 3.23276 
3.29431 3.36686 3.45937 3.58431 3.75776 3.99912 4.32991 4.77193 5.34485 
6.06394 6.93843 7.97063 9.15594 10.4834 11.9366 13.4947 15.1339 16.8281 
18.5503 20.2734 21.9712 23.6192 25.1951 26.6795 28.056 29.3115 30.4362 
31.4237 32.2701 32.9744 33.5373 33.9612 34.2493 34.4051 34.432 34.3326 
34.1079 33.7597 3.16572 3.22124 3.28074 3.35007 3.43792 3.55654 3.72187 
3.95336 4.2729 4.70296 5.26415 5.97281 6.83917 7.86638 9.05044 10.3806 
11.8406 13.4094 15.0625 16.7735 18.5146 20.258 21.9768 23.6459 25.2422 
26.7458 28.1399 29.411 30.5494 31.5482 32.4038 33.1153 33.6835 34.1111 
34.4014 34.5584 34.5855 34.4856 34.2598 33.9102 3.15616 3.21068 3.26824 
3.33449 3.41787 3.53036 3.68774 3.90948 4.21779 4.63578 5.18501 5.88289 
6.74072 7.76253 8.94491 10.2775 11.744 13.3231 14.9902 16.7179 18.4779 
20.2418 21.9818 23.672 25.2889 26.8118 28.2236 29.5106 30.6625 31.6727 
32.5376 33.2561 33.8296 34.2607 34.5532 34.7112 34.7385 34.638 34.4112 
34.0601 3.14746 3.20104 3.25677 3.32008 3.39916 3.50572 3.65533 3.86745 
4.16456 4.5704 5.10745 5.79422 6.64311 7.65908 8.83939 10.174 11.6467 
13.2361 14.9169 16.6613 18.4404 20.2248 21.9861 23.6976 25.3352 26.8777 
28.3073 29.6101 30.7757 31.7972 32.6712 33.3968 33.9754 34.4101 34.7047 
34.8637 34.891 34.79 34.562 34.2095 3.13958 3.19227 3.24627 3.30678 
3.38175 3.48257 3.6246 3.82724 4.11321 4.50683 5.03149 5.70684 6.54639 
7.55609 8.73389 10.0702 11.5488 13.1482 14.8426 16.6038 18.4019 20.2069 
21.9897 23.7227 25.3812 26.9433 28.3908 29.7095 30.8888 31.9218 32.8049 
33.5375 34.1212 34.5592 34.8559 35.0157 35.0431 34.9414 34.7122 34.3582 
3.13248 3.18435 3.2367 3.29456 3.36558 3.46086 3.59552 3.78884 4.06373 
4.44507 4.95716 5.62077 6.45058 7.45357 8.62844 9.96606 11.4503 13.0594 
14.7674 16.5452 18.3624 20.1882 21.9926 23.7473 25.4267 27.0086 28.4742 
29.8089 31.0019 32.0462 32.9384 33.678 34.2667 34.7081 35.0066 35.1673 
35.1946 35.0922 34.8619 34.5064 3.12613 3.17722 3.22803 3.28336 3.35061 
3.44056 3.56804 3.7522 4.0161 4.38513 4.88447 5.53604 6.35572 7.35155 
8.52307 9.86159 11.3511 12.9698 14.6912 16.4856 18.322 20.1687 21.9947 
23.7712 25.4719 27.0736 28.5574 29.9082 31.1149 32.1707 33.0719 33.8184 
34.412 34.8566 35.157 35.3184 35.3456 35.2424 35.0109 34.6539 3.12048 
3.17084 3.2202 3.27315 3.33679 3.42161 3.54212 3.7173 3.97032 4.32702 
4.81345 5.45268 6.26184 7.25008 8.4178 9.75683 11.2514 12.8794 14.614 
16.4251 18.2806 20.1482 21.9962 23.7946 25.5166 27.1384 28.6405 30.0074 
31.2279 32.295 33.2053 33.9585 34.557 35.0048 35.307 35.469 35.496 
35.392 35.1593 34.8007 3.1155 3.16519 3.21318 3.26386 3.32408 3.40397 
3.51772 3.68412 3.92635 4.27073 4.74411 5.37073 6.16898 7.14919 8.31267 
9.6518 11.151 12.7881 14.5359 16.3635 18.2382 20.1269 21.9968 23.8174 
25.5609 27.2029 28.7234 30.1065 31.3409 32.4193 33.3386 34.0986 34.7018 
35.1526 35.4564 35.6191 35.6458 35.541 35.3069 34.9468 3.11117 3.16022 
3.20692 3.25548 3.31243 3.38759 3.49479 3.6526 3.8842 4.21626 4.67648 
5.29021 6.07717 7.04891 8.20769 9.54652 11.0501 12.696 14.4567 16.3009 
18.1949 20.1046 21.9967 23.8397 25.6048 27.2671 28.8061 30.2055 31.4537 
32.5436 33.4717 34.2384 34.8463 35.3 35.6055 35.7686 35.795 35.6893 
35.4539 35.0922 3.10744 3.15591 3.2014 3.24794 3.3018 3.37242 3.47331 
3.62273 3.84383 4.16362 4.61055 5.21115 5.98645 6.94927 8.1029 9.441 
10.9485 12.6031 14.3766 16.2372 18.1505 20.0815 21.9959 23.8613 25.6482 
27.3311 28.8886 30.3044 31.5665 32.6677 33.6047 34.378 34.9904 35.4471 
35.754 35.9175 35.9435 35.8369 35.6002 35.2369 3.1043 3.15222 3.19658 
3.24122 3.29214 3.35843 3.45321 3.59446 3.80523 4.11279 4.54636 5.13358 
5.89685 6.85032 7.99834 9.33529 10.8464 12.5093 14.2955 16.1725 18.1051 
20.0575 21.9943 23.8823 25.6912 27.3947 28.971 30.4032 31.6792 32.7917 
33.7376 34.5174 35.1343 35.5937 35.902 36.0659 36.0914 35.9838 35.7457 
35.3808 3.1017 3.14912 3.19243 3.23528 3.28341 3.34556 3.43446 3.56776 
3.76837 4.06379 4.48391 5.05753 5.80841 6.75208 7.89403 9.22939 10.7438 
12.4147 14.2135 16.1068 18.0587 20.0325 21.9919 23.9026 25.7337 27.458 
29.0531 30.5018 31.7918 32.9156 33.8703 34.6565 35.2779 35.74 36.0496 
36.2136 36.2386 36.1299 35.8904 35.524 3.09963 3.14658 3.1889 3.23008 
3.27557 3.33377 3.41702 3.54259 3.73322 4.01658 4.42321 4.98302 5.72117 
6.6546 7.79 9.12334 10.6406 12.3193 14.1304 16.04 18.0113 20.0066 
21.9887 23.9224 25.7758 27.521 29.1351 30.6003 31.9043 33.0394 34.0028 
34.7954 35.4211 35.8857 36.1965 36.3608 36.3852 36.2754 36.0345 35.6664 
3.09806 3.14457 3.18598 3.22558 3.26858 3.32302 3.40084 3.51892 3.69976 
3.97117 4.36428 4.91008 5.63516 6.55792 7.6863 9.01716 10.5369 12.2232 
14.0464 15.9721 17.9628 19.9797 21.9847 23.9415 25.8174 27.5836 29.2168 
30.6987 32.0166 33.1631 34.1351 34.934 35.5639 36.0311 36.343 36.5073 
36.531 36.4201 36.1777 35.808 3.09697 3.14308 3.18363 3.22176 3.2624 
3.31327 3.38587 3.49669 3.66797 3.92755 4.30712 4.83873 5.55041 6.46206 
7.58295 8.91087 10.4327 12.1262 13.9614 15.9032 17.9133 19.9519 21.9799 
23.96 25.8585 27.646 29.2984 30.797 32.1289 33.2866 34.2673 35.0724 
35.7064 36.1759 36.4888 36.6531 36.6762 36.564 36.3201 35.9489 3.09633 
3.14207 3.18183 3.21857 3.257 3.30447 3.37209 3.47588 3.63781 3.8857 
4.25173 4.769 5.46695 6.36707 7.47999 8.80451 10.3281 12.0284 13.8754 
15.8332 17.8627 19.9232 21.9743 23.9778 25.8992 27.708 29.3797 30.8951 
32.2411 33.41 34.3993 35.2105 35.8485 36.3203 36.6341 36.7983 36.8206 
36.7072 36.4618 36.0889 3.09612 3.14153 3.18055 3.216 3.25234 3.29659 
3.35943 3.45645 3.60924 3.8456 4.19813 4.70091 5.38483 6.27299 7.37746 
8.6981 10.223 11.9299 13.7884 15.7622 17.8111 19.8934 21.9678 23.995 
25.9393 27.7697 29.4608 30.9931 32.3531 33.5332 34.531 35.3483 35.9902 
36.4642 36.7788 36.9428 36.9642 36.8495 36.6026 36.2281 3.09632 3.14142 
3.17976 3.21401 3.24838 3.28959 3.34786 3.43835 3.58224 3.80724 4.1463 
4.63447 5.30408 6.17985 7.27538 8.59167 10.1174 11.8306 13.7005 15.6901 
17.7584 19.8627 21.9606 24.0116 25.979 27.8311 29.5417 31.0909 32.465 
33.6564 34.6626 35.4857 36.1315 36.6075 36.9229 37.0867 37.1071 36.9911 
36.7426 36.3664 3.09691 3.14173 3.17944 3.21257 3.24511 3.28342 3.33734 
3.42153 3.55678 3.77059 4.09625 4.56971 5.22472 6.08769 7.1738 8.48525 
10.0114 11.7305 13.6116 15.6169 17.7047 19.8311 21.9525 24.0274 26.0183 
27.8922 29.6224 31.1886 32.5768 33.7793 34.7939 35.6229 36.2723 36.7503 
37.0663 37.2298 37.2493 37.1319 36.8818 36.504 3.09788 3.14245 3.17957 
3.21165 3.24247 3.27805 3.32783 3.40597 3.53281 3.73565 4.04799 4.50664 
5.14679 5.99656 7.07276 8.37887 9.90507 11.6297 13.5217 15.5426 17.6498 
19.7984 21.9435 24.0426 26.057 27.9529 29.7029 31.2861 32.6885 33.9021 
34.9249 35.7597 36.4127 36.8926 37.2091 37.3721 37.3906 37.2718 37.0201 
36.6406 3.09921 3.14354 3.18013 3.21123 3.24044 3.27346 3.31928 3.39162 
3.51031 3.70237 4.00149 4.44528 5.07032 5.90648 6.97229 8.27257 9.79832 
11.5282 13.4308 15.4673 17.5939 19.7647 21.9337 24.0572 26.0952 28.0133 
29.7831 31.3835 32.7999 34.0246 35.0557 35.8962 36.5527 37.0343 37.3512 
37.5138 37.5311 37.4109 37.1575 36.7764 3.10089 3.145 3.18109 3.21128 
3.23898 3.26959 3.31167 3.37843 3.48923 3.67074 3.95677 4.38564 4.99534 
5.81751 6.87243 8.16637 9.69122 11.426 13.339 15.3909 17.5369 19.73 
21.923 24.071 26.1329 28.0732 29.8631 31.4807 32.9113 34.147 35.1862 
36.0322 36.6921 37.1754 37.4926 37.6546 37.6708 37.549 37.294 36.9112 
3.10289 3.14682 3.18243 3.21178 3.23807 3.26642 3.30496 3.36637 3.46953 
3.64074 3.9138 4.32774 4.92188 5.72967 6.77322 8.0603 9.58378 11.323 
13.2462 15.3134 17.4788 19.6943 21.9115 24.0841 26.1701 28.1329 29.9429 
31.5777 33.0224 34.2692 35.3164 36.1679 36.831 37.3158 37.6333 37.7946 
37.8095 37.6862 37.4296 37.0451 3.10521 3.14896 3.18415 3.21272 3.23767 
3.26389 3.2991 3.3554 3.45119 3.61232 3.87258 4.27158 4.84997 5.64301 
6.67471 7.95442 9.47605 11.2194 13.1525 15.2347 17.4196 19.6575 21.899 
24.0965 26.2067 28.1921 30.0224 31.6745 33.1333 34.391 35.4463 36.3031 
36.9693 37.4555 37.7731 37.9337 37.9473 37.8225 37.5641 37.178 3.10784 
3.15143 3.18623 3.21405 3.23777 3.26199 3.29405 3.34549 3.43415 3.58547 
3.8331 4.21718 4.77964 5.55756 6.57692 7.84874 9.36803 11.1151 13.0578 
15.155 17.3592 19.6198 21.8857 24.1082 26.2428 28.251 30.1016 31.771 
33.244 34.5127 35.5758 36.4378 37.1071 37.5945 37.9122 38.0719 38.0842 
37.9577 37.6977 37.3099 3.11076 3.15421 3.18864 3.21578 3.23834 3.26068 
3.28976 3.33661 3.41838 3.56015 3.79534 4.16454 4.71091 5.47337 6.47991 
7.7433 9.25977 11.0101 12.9622 15.0743 17.2978 19.5809 21.8714 24.1191 
26.2783 28.3095 30.1805 31.8674 33.3545 34.634 35.7049 36.572 37.2442 
37.7328 38.0503 38.2091 38.22 38.0919 37.8301 37.4407 3.11396 3.15729 
3.19138 3.21789 3.23936 3.25992 3.2862 3.32869 3.40386 3.53634 3.75929 
4.11367 4.64381 5.39046 6.38372 7.63816 9.15128 10.9045 12.8657 14.9924 
17.2352 19.541 21.8563 24.1294 26.3133 28.3675 30.2591 31.9634 33.4647 
34.755 35.8336 36.7057 37.3806 37.8702 38.1876 38.3454 38.3548 38.225 
37.9615 37.5703 3.11743 3.16065 3.19443 3.22035 3.2408 3.2597 3.28332 
3.32169 3.39056 3.51398 3.72492 4.06457 4.57836 5.3089 6.28838 7.53333 
9.0426 10.7983 12.7682 14.9094 17.1715 19.5001 21.8402 24.1388 26.3478 
28.4252 30.3374 32.0593 33.5746 34.8756 35.9618 36.8388 37.5162 38.0068 
38.3239 38.4806 38.4885 38.357 38.0917 37.6988 3.12116 3.16428 3.19778 
3.22315 3.24265 3.25999 3.28111 3.31557 3.37845 3.49305 3.69221 4.01723 
4.51459 5.22869 6.19395 7.42887 8.93377 10.6915 12.6698 14.8254 17.1066 
19.4581 21.8232 24.1476 26.3816 28.4825 30.4154 32.1548 33.6843 34.9959 
36.0896 36.9712 37.6512 38.1425 38.4591 38.6147 38.621 38.4878 38.2207 
37.8261 3.12514 3.16818 3.20142 3.22627 3.24489 3.26076 3.27952 3.31027 
3.36745 3.47355 3.66116 3.97167 4.45251 5.1499 6.10047 7.32482 8.82481 
10.5841 12.5706 14.7402 17.0407 19.415 21.8053 24.1556 26.4149 28.5393 
30.4931 32.2501 33.7936 35.1159 36.2169 37.1031 37.7853 38.2773 38.5934 
38.7477 38.7524 38.6173 38.3484 37.9522 3.12937 3.17234 3.20534 3.22971 
3.24749 3.26199 3.27853 3.30577 3.35752 3.45544 3.63172 3.92787 4.39215 
5.07255 6.00798 7.22122 8.71577 10.4761 12.4704 14.6541 16.9736 19.3709 
21.7864 24.1628 26.4477 28.5958 30.5705 32.3452 33.9027 35.2354 36.3437 
37.2342 37.9187 38.4111 38.7266 38.8796 38.8826 38.7457 38.475 38.077 
3.13383 3.17674 3.20952 3.23344 3.25045 3.26366 3.2781 3.30201 3.34861 
3.4387 3.60387 3.88583 4.33352 4.99669 5.91653 7.11812 8.60669 10.3677 
12.3694 14.5668 16.9055 19.3257 21.7667 24.1694 26.4799 28.6518 30.6476 
32.44 34.0115 35.3546 36.4699 37.3648 38.0512 38.544 38.8587 39.0103 
39.0116 38.8728 38.6003 38.2006 3.13852 3.18138 3.21395 3.23747 3.25375 
3.26574 3.27822 3.29898 3.34067 3.42329 3.57759 3.84554 4.27665 4.92234 
5.82616 7.01556 8.49759 10.2588 12.2676 14.4786 16.8362 19.2796 21.7461 
24.1752 26.5116 28.7075 30.7245 32.5345 34.1201 35.4735 36.5958 37.4947 
38.183 38.676 38.9899 39.1399 39.1394 38.9987 38.7244 38.323 3.14343 
3.18624 3.21863 3.24176 3.25737 3.26822 3.27884 3.29663 3.33365 3.40914 
3.55288 3.807 4.22153 4.84954 5.73693 6.91359 8.38853 10.1494 12.165 
14.3893 16.7659 19.2323 21.7246 24.1804 26.5429 28.7629 30.8012 32.6289 
34.2284 35.592 36.7211 37.624 38.314 38.8071 39.12 39.2684 39.266 
39.1235 38.8473 38.4442 3.14855 3.19133 3.22355 3.24632 3.26129 3.27108 
3.27995 3.29493 3.32752 3.39618 3.52974 3.77018 4.16819 4.77832 5.64887 
6.81226 8.27954 10.0396 12.0616 14.299 16.6945 19.1842 21.7023 24.1849 
26.5737 28.8181 30.8777 32.7232 34.3366 35.7103 36.8461 37.7528 38.4443 
38.9373 39.2491 39.3959 39.3916 39.2471 38.9691 38.5642 3.15388 3.19664 
3.2287 3.25114 3.26551 3.27429 3.28152 3.29385 3.32224 3.38438 3.50813 
3.73508 4.11663 4.70872 5.56203 6.71161 8.17066 9.92939 11.9574 14.2077 
16.622 19.135 21.6791 24.1888 26.604 28.8729 30.954 32.8174 34.4447 
35.8284 36.9707 37.8811 38.574 39.0668 39.3773 39.5224 39.5162 39.3698 
39.0898 38.6833 3.15941 3.20214 3.23406 3.25619 3.27 3.27785 3.28354 
3.29336 3.31775 3.37368 3.48805 3.70164 4.06686 4.64077 5.47646 6.61169 
8.06195 9.81885 11.8525 14.1155 16.5486 19.0849 21.6552 24.1922 26.6341 
28.9276 31.0304 32.9116 34.5527 35.9464 37.0951 38.0089 38.7031 39.1955 
39.5048 39.6481 39.6399 39.4915 39.2097 38.8014 3.16513 3.20785 3.23964 
3.26148 3.27477 3.28173 3.28597 3.29343 3.31403 3.36404 3.46939 3.66992 
4.01889 4.57448 5.39218 6.51254 7.95343 9.70799 11.7468 14.0224 16.4741 
19.0338 21.6305 24.195 26.6638 28.9822 31.1067 33.0058 34.6608 36.0644 
37.2194 38.1365 38.8318 39.3238 39.6316 39.773 39.7629 39.6125 39.3289 
38.9189 3.17103 3.21375 3.24542 3.26698 3.27979 3.28593 3.28879 3.29403 
3.31105 3.3554 3.45211 3.63992 3.97272 4.50989 5.30926 6.41421 7.84515 
9.59684 11.6405 13.9283 16.3987 18.9819 21.6051 24.1973 26.6933 29.0368 
31.1831 33.1003 34.769 36.1824 37.3436 38.2639 38.9601 39.4516 39.758 
39.8975 39.8852 39.733 39.4475 39.0358 3.17712 3.21983 3.25139 3.27271 