# vtk DataFile Version 5.1
vtk output
ASCII
DATASET UNSTRUCTURED_GRID
POINTS 12669 double
-50.1 0 0 -0.1 0 0 0.1 0 0 
25.1 0 0 25.1 10 0 0.1 10 0 
-0.1 10 0 -50.1 10 0 -49.447025829 0 0 
-48.801794431 0 0 -48.164214001 0 0 -47.534193818 0 0 
-46.911644227 0 0 -46.296476648 0 0 -45.688603543 0 0 
-45.087938417 0 0 -44.494395805 0 0 -43.90789125 0 0 
-43.328341294 0 0 -42.755663471 0 0 -42.189776295 0 0 
-41.630599242 0 0 -41.078052747 0 0 -40.532058186 0 0 
-39.992537867 0 0 -39.459415023 0 0 -38.932613793 0 0 
-38.412059219 0 0 -37.897677231 0 0 -37.389394634 0 0 
-36.887139106 0 0 -36.390839174 0 0 -35.900424222 0 0 
-35.415824471 0 0 -34.936970957 0 0 -34.463795547 0 0 
-33.996230916 0 0 -33.534210529 0 0 -33.077668642 0 0 
-32.626540297 0 0 -32.180761299 0 0 -31.740268219 0 0 
-31.304998377 0 0 -30.874889834 0 0 -30.449881395 0 0 
-30.029912583 0 0 -29.614923635 0 0 -29.204855504 0 0 
-28.799649841 0 0 -28.399248992 0 0 -28.00359598 0 0 
-27.612634502 0 0 -27.226308931 0 0 -26.844564298 0 0 
-26.467346282 0 0 -26.094601209 0 0 -25.726276037 0 0 
-25.362318354 0 0 -25.002676375 0 0 -24.647298925 0 0 
-24.296135438 0 0 -23.949135946 0 0 -23.606251074 0 0 
-23.267432028 0 0 -22.932630599 0 0 -22.60179915 0 0 
-22.274890601 0 0 -21.951858437 0 0 -21.632656693 0 0 
-21.317239952 0 0 -21.005563333 0 0 -20.697582484 0 0 
-20.393253579 0 0 -20.092533314 0 0 -19.795378905 0 0 
-19.501748069 0 0 -19.211599017 0 0 -18.924890469 0 0 
-18.641581628 0 0 -18.361632179 0 0 -18.085002288 0 0 
-17.811652595 0 0 -17.541544203 0 0 -17.274638676 0 0 
-17.010898038 0 0 -16.750284759 0 0 -16.492761755 0 0 
-16.238292386 0 0 -15.986840441 0 0 -15.73837014 0 0 
-15.492846127 0 0 -15.250233467 0 0 -15.010497637 0 0 
-14.773604522 0 0 -14.539520416 0 0 -14.308212012 0 0 
-14.079646394 0 0 -13.853791037 0 0 -13.630613808 0 0 
-13.41008295 0 0 -13.192167083 0 0 -12.9768352 0 0 
-12.764056659 0 0 -12.553801187 0 0 -12.346038864 0 0 
-12.140740121 0 0 -11.937875747 0 0 -11.737416881 0 0 
-11.539335 0 0 -11.343601917 0 0 -11.15018978 0 0 
-10.959071065 0 0 -10.770218579 0 0 -10.583605452 0 0 
-10.399205132 0 0 -10.216991374 0 0 -10.03693825 0 0 
-9.8590201479 0 0 -9.683211749 0 0 -9.5094880351 0 0 
-9.3378242827 0 0 -9.1681960658 0 0 -9.0005792535 0 0 
-8.8349499936 0 0 -8.6712847156 0 0 -8.5095601319 0 0 
-8.3497532322 0 0 -8.1918412761 0 0 -8.0358017916 0 0 
-7.8816125772 0 0 -7.7292516959 0 0 -7.5786974644 0 0 
-7.4299284603 0 0 -7.2829235159 0 0 -7.1376617121 0 0 
-6.9941223817 0 0 -6.8522850987 0 0 -6.7121296816 0 0 
-6.5736361876 0 0 -6.4367849066 0 0 -6.3015563697 0 0 
-6.1679313339 0 0 -6.0358907817 0 0 -5.9054159287 0 0 
-5.7764882093 0 0 -5.6490892763 0 0 -5.5232010041 0 0 
-5.3988054792 0 0 -5.2758849997 0 0 -5.1544220747 0 0 
-5.0343994192 0 0 -4.915799958 0 0 -4.7986068166 0 0 
-4.6828033163 0 0 -4.5683729784 0 0 -4.4552995239 0 0 
-4.3435668643 0 0 -4.2331590971 0 0 -4.1240605105 0 0 
-4.016255583 0 0 -3.9097289743 0 0 -3.8044655262 0 0 
-3.7004502618 0 0 -3.5976683776 0 0 -3.4961052517 0 0 
-3.3957464319 0 0 -3.2965776352 0 0 -3.1985847571 0 0 
-3.1017538501 0 0 -3.006071133 0 0 -2.911522996 0 0 
-2.8180959831 0 0 -2.7257767973 0 0 -2.6345523061 0 0 
-2.5444095283 0 0 -2.4553356352 0 0 -2.3673179555 0 0 
-2.2803439674 0 0 -2.1944012905 0 0 -2.1094776961 0 0 
-2.0255611029 0 0 -1.9426395651 0 0 -1.8607012872 0 0 
-1.7797346108 0 0 -1.6997280122 0 0 -1.6206701073 0 0 
-1.5425496489 0 0 -1.4653555233 0 0 -1.3890767423 0 0 
-1.3137024497 0 0 -1.2392219223 0 0 -1.1656245665 0 0 
-1.0928999071 0 0 -1.0210375925 0 0 -0.95002740126 0 0 
-0.87985922981 0 0 -0.81052308986 0 0 -0.74200911888 0 0 
-0.67430756817 0 0 -0.60740880042 0 0 -0.54130330004 0 0 
-0.47598166168 0 0 -0.41143458748 0 0 -0.34765289347 0 0 
-0.28462750229 0 0 -0.22234944532 0 0 -0.16080986428 0 0 
-0.075 0 0 -0.05 0 0 -0.025 0 0 
-2.6574575873e-13 0 0 0.025 0 0 0.05 0 0 
0.075 0 0 0.15779696894 0 0 0.21703886108 0 0 
0.27776180117 0 0 0.340002814 0 0 0.40379985127 0 0 
0.46919181481 0 0 0.53621857657 0 0 0.60492100866 0 0 
0.67534100109 0 0 0.74752148987 0 0 0.82150649092 0 0 
0.89734111706 0 0 0.97507160995 0 0 1.0547453643 0 0 
1.1364109627 0 0 1.2201182027 0 0 1.3059181251 0 0 
1.3938630446 0 0 1.4840065849 0 0 1.5764037133 0 0 
1.6711107699 0 0 1.7681855044 0 0 1.86768711 0 0 
1.9696762586 0 0 2.0742151333 0 0 2.1813674765 0 0 
2.2911986267 0 0 2.4037755563 0 0 2.5191669124 0 0 
2.6374430544 0 0 2.7586760979 0 0 2.8829399663 0 0 
3.0103104305 0 0 3.1408651546 0 0 3.2746837503 0 0 
3.4118478133 0 0 3.5524409773 0 0 3.6965489696 0 0 
3.8442596609 0 0 3.9956631168 0 0 4.1508516574 0 0 
4.3099199146 0 0 4.4729648788 0 0 4.6400859659 0 0 
4.8113850794 0 0 4.9869666698 0 0 5.1669378027 0 0 
5.3514082154 0 0 5.5404903866 0 0 5.7342996132 0 0 
5.9329540737 0 0 6.1365748932 0 0 6.3452862319 0 0 
6.5592153533 0 0 6.7784927017 0 0 7.0032519874 0 0 
7.2336302578 0 0 7.4697679819 0 0 7.7118091476 0 0 
7.9599013412 0 0 8.2141958396 0 0 8.4748477034 0 0 
8.7420158642 0 0 9.0158632266 0 0 9.2965567704 0 0 
9.5842676529 0 0 9.8791713075 0 0 10.181447556 0 0 
10.491280715 0 0 10.8088597 0 0 11.134378158 0 0 
11.468034578 0 0 11.810032411 0 0 12.16058019 0 0 
12.519891663 0 0 12.888185921 0 0 13.265687534 0 0 
13.652626688 0 0 14.049239319 0 0 14.455767267 0 0 
14.872458413 0 0 15.299566839 0 0 15.737352979 0 0 
16.186083771 0 0 16.646032833 0 0 17.117480623 0 0 
17.600714604 0 0 18.096029435 0 0 18.603727139 0 0 
19.124117281 0 0 19.657517178 0 0 20.204252075 0 0 
20.764655347 0 0 21.339068701 0 0 21.927842387 0 0 
22.531335412 0 0 23.149915765 0 0 23.783960627 0 0 
24.433856613 0 0 25.1 0.25 0 25.1 0.5 0 
25.1 0.75 0 25.1 1 0 25.1 1.25 0 
25.1 1.5 0 25.1 1.75 0 25.1 2 0 
25.1 2.25 0 25.1 2.5 0 25.1 2.75 0 
25.1 3 0 25.1 3.25 0 25.1 3.5 0 
25.1 3.75 0 25.1 4 0 25.1 4.25 0 
25.1 4.5 0 25.1 4.75 0 25.1 5 0 
25.1 5.25 0 25.1 5.5 0 25.1 5.75 0 
25.1 6 0 25.1 6.25 0 25.1 6.5 0 
25.1 6.75 0 25.1 7 0 25.1 7.25 0 
25.1 7.5 0 25.1 7.75 0 25.1 8 0 
25.1 8.25 0 25.1 8.5 0 25.1 8.75 0 
25.1 9 0 25.1 9.25 0 25.1 9.5 0 
25.1 9.75 0 24.433856617 10 0 23.78396063 10 0 
23.149915768 10 0 22.531335414 10 0 21.927842388 10 0 
21.339068702 10 0 20.764655347 10 0 20.204252075 10 0 
19.657517177 10 0 19.12411728 10 0 18.603727137 10 0 
18.096029434 10 0 17.600714602 10 0 17.11748062 10 0 
16.64603283 10 0 16.186083768 10 0 15.737352976 10 0 
15.299566836 10 0 14.872458409 10 0 14.455767263 10 0 
14.049239315 10 0 13.652626683 10 0 13.265687529 10 0 
12.888185916 10 0 12.519891657 10 0 12.160580184 10 0 
11.810032405 10 0 11.468034572 10 0 11.134378152 10 0 
10.808859694 10 0 10.491280708 10 0 10.18144755 10 0 
9.8791713011 10 0 9.5842676463 10 0 9.2965567637 10 0 
9.0158632199 10 0 8.7420158574 10 0 8.4748476965 10 0 
8.2141958327 10 0 7.9599013342 10 0 7.7118091406 10 0 
7.4697679749 10 0 7.2336302507 10 0 7.0032519803 10 0 
6.7784926946 10 0 6.5592153462 10 0 6.3452862247 10 0 
6.1365748861 10 0 5.9329540665 10 0 5.734299606 10 0 
5.5404903794 10 0 5.3514082083 10 0 5.1669377955 10 0 
4.9869666627 10 0 4.8113850723 10 0 4.6400859588 10 0 
4.4729648718 10 0 4.3099199076 10 0 4.1508516504 10 0 
3.9956631098 10 0 3.844259654 10 0 3.6965489627 10 0 
3.5524409705 10 0 3.4118478065 10 0 3.2746837435 10 0 
3.1408651479 10 0 3.0103104238 10 0 2.8829399597 10 0 
2.7586760914 10 0 2.6374430479 10 0 2.519166906 10 0 
2.4037755499 10 0 2.2911986204 10 0 2.1813674703 10 0 
2.0742151271 10 0 1.9696762525 10 0 1.8676871039 10 0 
1.7681854984 10 0 1.6711107639 10 0 1.5764037074 10 0 
1.4840065791 10 0 1.3938630388 10 0 1.3059181194 10 0 
1.2201181971 10 0 1.1364109572 10 0 1.0547453588 10 0 
0.97507160451 10 0 0.89734111169 10 0 0.82150648561 10 0 
0.74752148462 10 0 0.67534099591 10 0 0.60492100349 10 0 
0.53621857153 10 0 0.46919180983 10 0 0.40379984635 10 0 
0.34000280915 10 0 0.27776179638 10 0 0.21703885635 10 0 
0.15779696428 10 0 0.075 10 0 0.05 10 0 
0.025 10 0 2.6574575873e-13 10 0 -0.025 10 0 
-0.05 10 0 -0.075 10 0 -0.16080986428 10 0 
-0.22234944532 10 0 -0.28462750229 10 0 -0.34765289346 10 0 
-0.41143458748 10 0 -0.47598166167 10 0 -0.54130330004 10 0 
-0.60740880041 10 0 -0.67430756817 10 0 -0.74200911888 10 0 
-0.81052308986 10 0 -0.87985922981 10 0 -0.95002740126 10 0 
-1.0210375925 10 0 -1.0928999071 10 0 -1.1656245665 10 0 
-1.2392219222 10 0 -1.3137024497 10 0 -1.3890767423 10 0 
-1.4653555232 10 0 -1.5425496489 10 0 -1.6206701073 10 0 
-1.6997280122 10 0 -1.7797346108 10 0 -1.8607012872 10 0 
-1.9426395651 10 0 -2.0255611028 10 0 -2.1094776961 10 0 
-2.1944012905 10 0 -2.2803439674 10 0 -2.3673179555 10 0 
-2.4553356352 10 0 -2.5444095283 10 0 -2.6345523061 10 0 
-2.7257767973 10 0 -2.8180959831 10 0 -2.911522996 10 0 
-3.006071133 10 0 -3.10175385 10 0 -3.198584757 10 0 
-3.2965776351 10 0 -3.3957464319 10 0 -3.4961052517 10 0 
-3.5976683776 10 0 -3.7004502618 10 0 -3.8044655262 10 0 
-3.9097289743 10 0 -4.0162555829 10 0 -4.1240605105 10 0 
-4.2331590971 10 0 -4.3435668642 10 0 -4.4552995239 10 0 
-4.5683729784 10 0 -4.6828033163 10 0 -4.7986068166 10 0 
-4.9157999579 10 0 -5.0343994191 10 0 -5.1544220747 10 0 
-5.2758849997 10 0 -5.3988054792 10 0 -5.5232010041 10 0 
-5.6490892763 10 0 -5.7764882093 10 0 -5.9054159286 10 0 
-6.0358907816 10 0 -6.1679313339 10 0 -6.3015563697 10 0 
-6.4367849066 10 0 -6.5736361875 10 0 -6.7121296816 10 0 
-6.8522850987 10 0 -6.9941223816 10 0 -7.137661712 10 0 
-7.2829235158 10 0 -7.4299284603 10 0 -7.5786974644 10 0 
-7.7292516959 10 0 -7.8816125771 10 0 -8.0358017915 10 0 
-8.1918412761 10 0 -8.3497532322 10 0 -8.5095601319 10 0 
-8.6712847155 10 0 -8.8349499936 10 0 -9.0005792534 10 0 
-9.1681960657 10 0 -9.3378242826 10 0 -9.509488035 10 0 
-9.6832117489 10 0 -9.8590201478 10 0 -10.03693825 10 0 
-10.216991374 10 0 -10.399205132 10 0 -10.583605452 10 0 
-10.770218579 10 0 -10.959071065 10 0 -11.15018978 10 0 
-11.343601917 10 0 -11.539335 10 0 -11.737416881 10 0 
-11.937875747 10 0 -12.140740121 10 0 -12.346038863 10 0 
[...]
CELL_DATA 12320
FIELD FieldData 7
B_Stress_n_p_m2 1 12320 float
0.0727731 0.07434 0.0756979 0.0768638 0.0778574 0.0786958 0.0793972 0.0799786 0.0804579 
0.080853 0.0811828 0.0814673 0.0817288 0.0819919 0.0822848 0.0826397 0.0830931 0.0836859 
0.0844627 0.0854708 0.0867575 0.0883672 0.0903375 0.092695 0.0954508 0.0985966 0.102102 
0.105913 0.109952 0.114119 0.118296 0.122348 0.126131 0.129494 0.132291 0.134375 
0.135618 0.135893 0.135118 0.133184 0.0727025 0.0742686 0.0756231 0.0767855 0.077774 
0.0786065 0.0793009 0.0798744 0.0803446 0.0807295 0.0810477 0.0813191 0.0815657 0.0818122 
0.0820864 0.0824206 0.0828515 0.0834207 0.0841739 0.0851596 0.0864272 0.0880237 0.0899893 
0.0923535 0.0951299 0.0983126 0.101872 0.105756 0.109885 0.114157 0.118451 0.122628 
0.12654 0.130031 0.132948 0.13514 0.136472 0.136819 0.136084 0.134179 0.0726954 
0.0742604 0.0756138 0.0767747 0.0777615 0.0785921 0.0792842 0.0798552 0.0803226 0.0807042 
0.0810186 0.0812853 0.0815262 0.0817654 0.0820308 0.0823541 0.082772 0.083326 0.0840622 
0.0850298 0.0862792 0.0878588 0.0898108 0.0921665 0.0949418 0.0981323 0.101711 0.105624 
0.109793 0.114116 0.11847 0.122713 0.126695 0.130256 0.133239 0.135492 0.136874 
0.137259 0.136544 0.134648 0.0726474 0.0742111 0.0755622 0.0767202 0.0777032 0.0785294 
0.0792164 0.0797817 0.0802425 0.0806167 0.0809226 0.0811799 0.0814098 0.0816365 0.0818874 
0.0821943 0.0825938 0.0831277 0.0838428 0.0847894 0.0860195 0.0875834 0.0895258 0.0918808 
0.0946666 0.0978811 0.101498 0.105466 0.109706 0.114114 0.118564 0.122911 0.127001 
0.13067 0.133756 0.136101 0.137561 0.138005 0.137327 0.135441 0.0726312 0.0741937 
0.0755432 0.076699 0.0776795 0.0785027 0.0791862 0.0797475 0.0802039 0.080573 0.0808731 
0.0811234 0.0813451 0.0815618 0.0818007 0.0820933 0.082476 0.0829908 0.0836847 0.084609 
0.0858169 0.0873608 0.0892874 0.0916335 0.0944198 0.0976467 0.10129 0.105298 0.109593 
0.11407 0.1186 0.123036 0.12722 0.130983 0.134159 0.136585 0.138113 0.138608 
0.137961 0.136085 0.0725958 0.074157 0.0755045 0.0766577 0.0776349 0.0784542 0.0791333 
0.0796895 0.0801402 0.080503 0.0807958 0.0810379 0.0812499 0.0814554 0.0816812 0.0819584 
0.0823235 0.0828185 0.0834909 0.084393 0.0855794 0.0871044 0.0890173 0.0913573 0.0941481 
0.0973925 0.101068 0.105125 0.109484 0.11404 0.118661 0.123199 0.127488 0.131358 
0.134635 0.137153 0.138758 0.139311 0.138701 0.136836 0.0725757 0.0741356 0.0754814 
0.0766322 0.0776065 0.0784224 0.0790974 0.0796492 0.0800949 0.080452 0.0807384 0.0809729 
0.0811761 0.0813711 0.0815842 0.0818465 0.0821941 0.082669 0.0833192 0.0841977 0.0853606 
0.0868641 0.0887597 0.0910897 0.0938803 0.0971373 0.10084 0.10494 0.109359 0.113989 
0.118698 0.123333 0.127725 0.131698 0.135075 0.137684 0.139365 0.139976 0.139401 
0.137547 0.0725473 0.0741061 0.07545 0.0765983 0.0775694 0.0783815 0.0790523 0.0795993 
0.0800396 0.0803907 0.0806704 0.0808971 0.0810914 0.0812757 0.0814762 0.0817236 0.0820537 
0.0825088 0.0831369 0.0839921 0.0851317 0.0866137 0.0884924 0.0908125 0.0936037 0.096874 
0.100606 0.104751 0.109232 0.11394 0.11874 0.123477 0.127977 0.132059 0.13554 
0.138244 0.140005 0.140677 0.140139 0.138297 0.0725263 0.0740839 0.075426 0.0765718 
0.0775398 0.0783483 0.079015 0.0795573 0.0799925 0.0803379 0.0806111 0.0808304 0.0810159 
0.0811898 0.081378 0.0816106 0.0819233 0.0823582 0.0829639 0.0837948 0.0849098 0.0863688 
0.0882285 0.0905366 0.0933256 0.0966067 0.100364 0.104553 0.109093 0.113878 0.118769 
0.123607 0.128215 0.132407 0.135994 0.138794 0.140636 0.14137 0.140871 0.139041 
0.0725023 0.0740587 0.0753989 0.0765422 0.0775071 0.0783119 0.0789744 0.079512 0.0799421 
0.0802817 0.0805484 0.0807603 0.0809373 0.0811011 0.0812771 0.0814952 0.0817908 0.0822058 
0.0827891 0.0835958 0.084686 0.0861216 0.0879616 0.0902568 0.093043 0.0963342 0.100117 
0.104349 0.10895 0.113812 0.118796 0.123738 0.128456 0.132761 0.136456 0.139355 
0.141281 0.142079 0.141619 0.139802 0.072482 0.0740372 0.0753756 0.0765164 0.0774782 
0.0782793 0.0789376 0.0794706 0.0798956 0.0802296 0.08049 0.0806947 0.0808633 0.0810172 
0.0811813 0.0813851 0.0816636 0.0820587 0.0826194 0.0834014 0.0844661 0.085877 0.087696 
0.0899766 0.0927579 0.0960573 0.0998645 0.104137 0.108798 0.113737 0.118813 0.12386 
0.12869 0.133109 0.136915 0.139914 0.141926 0.142789 0.142371 0.140567 0.072461 
0.0740151 0.0753516 0.0764899 0.0774486 0.078246 0.0789002 0.0794286 0.0798484 0.0801769 
0.0804311 0.0806288 0.0807892 0.0809334 0.081086 0.0812757 0.0815375 0.0819129 0.0824511 
0.0832083 0.084247 0.0856328 0.0874297 0.0896946 0.0924698 0.0957761 0.099606 0.103919 
0.108639 0.113656 0.118825 0.123977 0.128922 0.133457 0.137376 0.140479 0.142578 
0.143509 0.143132 0.141342 0.0724422 0.0739952 0.0753299 0.0764656 0.0774211 0.0782149 
0.0788649 0.0793887 0.0798036 0.0801266 0.0803747 0.0805656 0.080718 0.0808528 0.080994 
0.08117 0.0814153 0.0817711 0.0822866 0.0830187 0.0840309 0.0853905 0.0871642 0.0894118 
0.0921793 0.0954907 0.0993418 0.103694 0.108473 0.113566 0.118829 0.124088 0.129148 
0.133801 0.137835 0.141044 0.143233 0.144232 0.143899 0.142123 0.0724238 0.0739757 
0.0753085 0.0764417 0.0773941 0.0781842 0.0788301 0.0793493 0.0797592 0.0800768 0.080319 
0.0805033 0.080648 0.0807736 0.0809037 0.0810663 0.0812953 0.0816317 0.0821247 0.0828316 
0.0838169 0.0851497 0.0868991 0.0891282 0.0918863 0.0952014 0.0990721 0.103463 0.108299 
0.113469 0.118827 0.124194 0.129371 0.134144 0.138295 0.141612 0.143893 0.144963 
0.144674 0.142913 0.072407 0.0739577 0.0752887 0.0764194 0.0773686 0.0781551 0.0787968 
0.0793115 0.0797165 0.0800288 0.0802652 0.0804429 0.0805801 0.0806968 0.0808162 0.0809656 
0.0811786 0.0814958 0.0819663 0.0826478 0.0836058 0.084911 0.086635 0.0888441 0.0915913 
0.0949082 0.098797 0.103224 0.108118 0.113365 0.118816 0.124292 0.129588 0.134483 
0.138754 0.142181 0.144556 0.145698 0.145455 0.14371 0.072391 0.0739406 0.0752697 
0.0763979 0.077344 0.0781267 0.0787643 0.0792745 0.0796746 0.0799817 0.0802124 0.0803838 
0.0805137 0.0806218 0.0807307 0.0808674 0.0810646 0.0813629 0.081811 0.082467 0.0833973 
0.0846742 0.0863718 0.0885596 0.0912943 0.0946114 0.0985166 0.102979 0.107929 0.113252 
0.118799 0.124384 0.1298 0.13482 0.139213 0.142751 0.145224 0.14644 0.146244 
0.144514 0.0723763 0.0739248 0.0752521 0.0763777 0.0773207 0.0780997 0.0787331 0.0792388 
0.0796342 0.0799361 0.0801612 0.0803264 0.0804493 0.080549 0.0806477 0.0807719 0.0809538 
0.0812333 0.0816592 0.0822896 0.0831919 0.0844398 0.08611 0.088275 0.0909955 0.094311 
0.098231 0.102728 0.107732 0.113131 0.118773 0.124469 0.130007 0.135153 0.13967 
0.143323 0.145894 0.147187 0.147039 0.145326 0.0723626 0.07391 0.0752355 0.0763586 
0.0772984 0.0780737 0.078703 0.0792042 0.0795948 0.0798916 0.0801113 0.0802705 0.0803865 
0.0804781 0.080567 0.0806789 0.0808458 0.0811069 0.0815107 0.0821155 0.0829894 0.0842077 
0.0858494 0.0879904 0.0906951 0.0940072 0.0979402 0.10247 0.107528 0.113002 0.118739 
0.124548 0.130208 0.135483 0.140126 0.143897 0.146569 0.147939 0.147841 0.146146 
0.0723501 0.0738965 0.0752202 0.0763407 0.0772773 0.0780489 0.078674 0.0791708 0.0795566 
0.0798485 0.0800628 0.0802161 0.0803255 0.0804092 0.0804885 0.0805887 0.0807408 0.0809837 
0.0813656 0.0819449 0.0827902 0.0839783 0.0855905 0.087706 0.0903933 0.0937002 0.0976444 
0.102205 0.107315 0.112865 0.118697 0.124618 0.130403 0.135808 0.140581 0.144471 
0.147246 0.148696 0.148649 0.146972 0.0723387 0.0738841 0.0752059 0.0763239 0.0772573 
0.0780251 0.0786462 0.0791385 0.0795196 0.0798065 0.0800156 0.0801632 0.0802661 0.0803423 
0.0804124 0.080501 0.0806388 0.0808638 0.081224 0.0817778 0.0825942 0.0837516 0.0853334 
0.0874222 0.0900903 0.0933902 0.0973437 0.101933 0.107096 0.112719 0.118647 0.124682 
0.130593 0.13613 0.141034 0.145047 0.147927 0.149459 0.149465 0.147806 0.0723286 
0.0738729 0.0751929 0.0763083 0.0772384 0.0780026 0.0786194 0.0791073 0.0794838 0.0797658 
0.0799698 0.0801119 0.0802085 0.0802773 0.0803384 0.0804159 0.0805396 0.0807472 0.081086 
0.0816142 0.0824016 0.0835277 0.0850783 0.0871389 0.0897862 0.0930772 0.0970382 0.101655 
0.106868 0.112565 0.118589 0.124737 0.130776 0.136448 0.141486 0.145623 0.148612 
0.150228 0.150287 0.148648 0.0723196 0.0738629 0.075181 0.0762938 0.0772207 0.0779811 
0.0785938 0.0790773 0.0794491 0.0797263 0.0799253 0.0800619 0.0801524 0.0802142 0.0802667 
0.0803334 0.0804434 0.0806338 0.0809514 0.0814543 0.0822125 0.0833068 0.0848252 0.0868565 
0.0894814 0.0927616 0.0967281 0.101371 0.106633 0.112403 0.118522 0.124785 0.130953 
0.136762 0.141935 0.1462 0.149299 0.151001 0.151116 0.149497 0.0723117 0.073854 
0.0751703 0.0762805 0.0772042 0.0779608 0.0785694 0.0790484 0.0794156 0.0796881 0.079882 
0.0800134 0.0800981 0.0801529 0.0801971 0.0802533 0.0803501 0.0805237 0.0808204 0.081298 
0.082027 0.0830891 0.0845745 0.0865751 0.0891759 0.0924434 0.0964134 0.10108 0.106389 
0.112231 0.118446 0.124825 0.131124 0.137071 0.142383 0.146778 0.14999 0.15178 
0.151951 0.150353 0.0723051 0.0738464 0.0751608 0.0762684 0.0771888 0.0779416 0.078546 
0.0790206 0.0793832 0.079651 0.0798401 0.0799663 0.0800453 0.0800935 0.0801296 0.0801758 
0.0802597 0.0804168 0.0806929 0.0811455 0.0818451 0.0828747 0.0843262 0.086295 0.0888701 
0.0921228 0.0960943 0.100783 0.106138 0.112052 0.118362 0.124857 0.131288 0.137375 
0.142828 0.147356 0.150683 0.152564 0.152794 0.151217 0.0722996 0.0738399 0.0751525 
0.0762575 0.0771746 0.0779236 0.0785238 0.0789939 0.079352 0.0796151 0.0797994 0.0799206 
0.079994 0.0800359 0.0800643 0.0801007 0.080172 0.0803132 0.080569 0.0809967 0.081667 
0.0826636 0.0840806 0.0860163 0.088564 0.0918001 0.095771 0.10048 0.10588 0.111863 
0.118268 0.124881 0.131445 0.137675 0.143271 0.147934 0.15138 0.153353 0.153643 
0.152089 0.0722953 0.0738346 0.0751453 0.0762477 0.0771615 0.0779066 0.0785026 0.0789683 
0.0793219 0.0795803 0.07976 0.0798762 0.0799443 0.0799801 0.080001 0.0800279 0.0800872 
0.0802127 0.0804486 0.0808517 0.0814927 0.0824561 0.0838378 0.0857392 0.0882579 0.0914755 
0.0954436 0.100171 0.105613 0.111665 0.118165 0.124895 0.131594 0.137969 0.143712 
0.148513 0.152079 0.154147 0.154499 0.152968 0.0722921 0.0738305 0.0751394 0.0762391 
0.0771495 0.0778908 0.0784826 0.0789438 0.0792928 0.0795467 0.0797217 0.0798332 0.0798961 
0.0799259 0.0799397 0.0799576 0.0800051 0.0801153 0.0803318 0.0807105 0.0813222 0.0822522 
0.083598 0.085464 0.087952 0.091149 0.0951123 0.0998558 0.105339 0.111459 0.118053 
0.124902 0.131737 0.138259 0.14415 0.149092 0.152781 0.154947 0.155362 0.153855 
0.0722902 0.0738276 0.0751346 0.0762316 0.0771387 0.0778761 0.0784636 0.0789205 0.0792649 
0.0795143 0.0796847 0.0797915 0.0798494 0.0798735 0.0798804 0.0798895 0.0799257 0.0800212 
0.0802185 0.0805732 0.0811557 0.082052 0.0833612 0.0851907 0.0876466 0.0908211 0.0947773 
0.0995346 0.105057 0.111244 0.117932 0.124899 0.131872 0.138542 0.144585 0.14967 
0.153487 0.155751 0.156231 0.154749 0.0722894 0.0738259 0.075131 0.0762253 0.077129 
0.0778625 0.0784457 0.0788981 0.0792381 0.0794829 0.0796489 0.0797511 0.0798041 0.0798227 
0.079823 0.0798238 0.079849 0.0799301 0.0801087 0.0804397 0.0809932 0.0818557 0.0831278 
0.0849197 0.0873419 0.0904918 0.0944386 0.0992077 0.104767 0.11102 0.117802 0.124887 
0.131999 0.138821 0.145017 0.150249 0.154194 0.156561 0.157108 0.155652 0.0722898 
0.0738253 0.0751285 0.0762201 0.0771204 0.07785 0.0784289 0.0788769 0.0792123 0.0794527 
0.0796142 0.0797119 0.0797603 0.0797736 0.0797675 0.0797602 0.0797749 0.079842 0.0800024 
0.08031 0.0808348 0.0816633 0.0828978 0.0846511 0.087038 0.0901614 0.0940967 0.0988751 
0.10447 0.110786 0.117661 0.124866 0.132118 0.139093 0.145446 0.150828 0.154905 
0.157376 0.157992 0.156562 0.0722914 0.0738259 0.0751273 0.0762161 0.077113 0.0778386 
0.0784132 0.0788567 0.0791876 0.0794235 0.0795807 0.079674 0.0797178 0.079726 0.0797139 
0.0796989 0.0797034 0.079757 0.0798995 0.0801842 0.0806804 0.0814749 0.0826713 0.0843851 
0.0867352 0.0898301 0.0937515 0.098537 0.104165 0.110544 0.117511 0.124836 0.132229 
0.139359 0.145871 0.151406 0.155618 0.158196 0.158882 0.15748 0.0722941 0.0738277 
0.0751272 0.0762133 0.0771066 0.0778282 0.0783986 0.0788375 0.0791639 0.0793954 0.0795483 
0.0796373 0.0796767 0.07968 0.079662 0.0796397 0.0796344 0.079675 0.0798002 0.0800623 
0.0805301 0.0812906 0.0824485 0.0841219 0.0864337 0.0894981 0.0934034 0.0981935 0.103852 
0.110293 0.117352 0.124796 0.132331 0.139619 0.146293 0.151983 0.156333 0.159021 
0.15978 0.158406 0.072298 0.0738307 0.0751282 0.0762116 0.0771014 0.077819 0.0783849 
0.0788194 0.0791413 0.0793684 0.079517 0.0796019 0.0796369 0.0796356 0.079612 0.0795825 
0.0795679 0.0795959 0.0797042 0.0799441 0.0803839 0.0811105 0.0822296 0.0838617 0.0861338 
0.0891658 0.0930525 0.0978449 0.103533 0.110032 0.117182 0.124746 0.132425 0.139872 
0.146711 0.15256 0.157051 0.159851 0.160684 0.15934 0.072303 0.0738348 0.0751305 
0.076211 0.0770973 0.0778108 0.0783724 0.0788023 0.0791197 0.0793425 0.0794868 0.0795676 
0.0795985 0.0795926 0.0795637 0.0795275 0.0795039 0.0795197 0.0796115 0.0798299 0.080242 
0.0809347 0.0820146 0.0836046 0.0858357 0.0888332 0.0926991 0.0974912 0.103206 0.109763 
0.117002 0.124687 0.132511 0.140119 0.147126 0.153136 0.157771 0.160686 0.161596 
0.160282 0.0723092 0.0738401 0.0751338 0.0762115 0.0770943 0.0778037 0.0783609 0.0787862 
0.0790992 0.0793176 0.0794578 0.0795345 0.0795613 0.0795511 0.079517 0.0794744 0.0794422 
0.0794463 0.0795223 0.0797194 0.0801042 0.0807632 0.0818037 0.0833508 0.0855395 0.0885007 
0.0923433 0.0971326 0.102871 0.109484 0.116813 0.124617 0.132587 0.140359 0.147536 
0.153711 0.158493 0.161527 0.162515 0.161232 0.0723166 0.0738465 0.0751383 0.0762132 
0.0770924 0.0777977 0.0783504 0.0787712 0.0790796 0.0792937 0.0794297 0.0795025 0.0795254 
0.079511 0.0794721 0.0794233 0.0793829 0.0793757 0.0794362 0.0796127 0.0799705 0.080596 
0.081597 0.0831006 0.0852455 0.0881685 0.0919854 0.0967693 0.10253 0.109196 0.116613 
0.124537 0.132654 0.140592 0.147941 0.154285 0.159218 0.162372 0.16344 0.16219 
0.0723251 0.0738541 0.075144 0.076216 0.0770916 0.0777927 0.0783409 0.0787572 0.0790611 
0.0792708 0.0794028 0.0794717 0.0794907 0.0794723 0.0794287 0.079374 0.0793258 0.0793078 
0.0793535 0.0795097 0.0798411 0.0804333 0.0813946 0.082854 0.0849539 0.0878368 0.0916257 
0.0964016 0.102181 0.108899 0.116402 0.124447 0.132712 0.140817 0.148343 0.154858 
0.159945 0.163222 0.164373 0.163157 0.0723347 0.0738629 0.0751508 0.0762199 0.0770919 
0.0777888 0.0783325 0.0787442 0.0790435 0.079249 0.0793769 0.079442 0.0794573 0.079435 
0.0793869 0.0793267 0.079271 0.0792426 0.0792739 0.0794104 0.0797158 0.080275 0.0811966 
0.0826112 0.084665 0.0875059 0.0912644 0.0960295 0.101826 0.108594 0.116182 0.124346 
0.13276 0.141035 0.148739 0.155429 0.160673 0.164078 0.165314 0.164132 0.0723455 
0.0738728 0.0751587 0.076225 0.0770932 0.077786 0.0783251 0.0787321 0.079027 0.0792281 
0.079352 0.0794134 0.0794251 0.079399 0.0793467 0.0792812 0.0792183 0.07918 0.0791974 
0.0793149 0.0795947 0.0801212 0.0810031 0.0823725 0.0843789 0.087176 0.0909017 0.0956533 
0.101463 0.108279 0.115951 0.124235 0.132799 0.141245 0.149131 0.155999 0.161404 
0.164938 0.166261 0.165115 0.0723574 0.0738838 0.0751678 0.0762311 0.0770957 0.0777841 
0.0783187 0.0787211 0.0790114 0.0792082 0.0793282 0.0793858 0.079394 0.0793643 0.079308 
0.0792374 0.0791678 0.07912 0.079124 0.0792229 0.0794778 0.079972 0.0808141 0.0821378 
0.0840959 0.0868475 0.0905379 0.0952732 0.101094 0.107955 0.115709 0.124112 0.132827 
0.141447 0.149518 0.156567 0.162136 0.165803 0.167216 0.166107 0.0723704 0.073896 
0.075178 0.0762383 0.0770991 0.0777833 0.0783133 0.078711 0.0789968 0.0791894 0.0793054 
0.0793594 0.0793641 0.079331 0.0792708 0.0791954 0.0791193 0.0790625 0.0790536 0.0791345 
0.079365 0.0798273 0.0806298 0.0819075 0.0838161 0.0865204 0.0901732 0.0948895 0.100719 
0.107622 0.115457 0.123979 0.132845 0.14164 0.149899 0.157134 0.16287 0.166673 
0.168178 0.167107 0.0723846 0.0739093 0.0751893 0.0762466 0.0771037 0.0777835 0.0783089 
0.0787019 0.0789832 0.0791715 0.0792836 0.079334 0.0793354 0.0792989 0.079235 0.0791551 
0.0790729 0.0790074 0.0789862 0.0790497 0.0792563 0.0796871 0.0804503 0.0816816 0.0835399 
0.0861952 0.0898079 0.0945023 0.100337 0.10728 0.115195 0.123834 0.132853 0.141826 
0.150274 0.157698 0.163606 0.167549 0.169148 0.168116 0.0723999 0.0739237 0.0752017 
0.0762561 0.0771093 0.0777848 0.0783055 0.0786938 0.0789705 0.0791545 0.0792627 0.0793096 
0.0793078 0.079268 0.0792007 0.0791164 0.0790284 0.0789547 0.0789217 0.0789683 0.0791516 
0.0795515 0.0802755 0.0814602 0.0832673 0.0858719 0.0894423 0.094112 0.0999491 0.10693 
0.114922 0.123678 0.13285 0.142002 0.150644 0.15826 0.164344 0.168429 0.170125 
0.169134 0.0724163 0.0739393 0.0752153 0.0762666 0.0771159 0.077787 0.0783031 0.0786866 
0.0789587 0.0791385 0.0792429 0.0792863 0.0792812 0.0792384 0.0791677 0.0790794 0.0789859 
0.0789044 0.07886 0.0788904 0.079051 0.0794204 0.0801055 0.0812435 0.0829986 0.085551 
0.0890767 0.0937187 0.0995551 0.106571 0.114638 0.123511 0.132836 0.14217 0.151008 
0.15882 0.165082 0.169314 0.171109 0.17016 0.0724339 0.073956 0.07523 0.0762782 
0.0771236 0.0777903 0.0783016 0.0786804 0.078948 0.0791235 0.079224 0.079264 0.0792558 
0.07921 0.0791361 0.0790439 0.0789452 0.0788563 0.0788011 0.0788158 0.0789543 0.0792939 
0.0799404 0.0810316 0.0827339 0.0852326 0.0887113 0.0933227 0.0991553 0.106203 0.114343 
0.123332 0.132811 0.142328 0.151366 0.159377 0.165823 0.170203 0.172101 0.171195 
0.0724525 0.0739738 0.0752457 0.0762908 0.0771324 0.0777946 0.0783011 0.0786752 0.0789381 
0.0791094 0.0792061 0.0792428 0.0792315 0.0791828 0.0791058 0.07901 0.0789064 0.0788104 
0.0787448 0.0787445 0.0788616 0.0791719 0.0797803 0.0808245 0.0824734 0.084917 0.0883464 
0.0929243 0.0987498 0.105826 0.114038 0.123142 0.132775 0.142477 0.151717 0.159932 
0.166564 0.171098 0.1731 0.17224 0.0724723 0.0739928 0.0752626 0.0763046 0.0771422 
0.0777998 0.0783016 0.0786708 0.0789292 0.0790963 0.0791892 0.0792225 0.0792083 0.0791567 
0.0790769 0.0789776 0.0788693 0.0787667 0.0786912 0.0786764 0.0787728 0.0790544 0.0796251 
0.0806225 0.0822174 0.0846044 0.0879823 0.0925237 0.098339 0.105441 0.113722 0.122939 
0.132728 0.142616 0.152062 0.160483 0.167307 0.171998 0.174108 0.173293 0.0724932 
0.0740129 0.0752806 0.0763194 0.077153 0.0778061 0.078303 0.0786674 0.0789212 0.0790841 
0.0791732 0.0792032 0.0791861 0.0791318 0.0790492 0.0789466 0.078834 0.078725 0.0786402 
0.0786115 0.0786878 0.0789413 0.0794748 0.0804256 0.081966 0.0842951 0.0876193 0.0921213 
0.097923 0.105048 0.113395 0.122725 0.132668 0.142746 0.152399 0.161032 0.16805 
0.172902 0.175122 0.174355 0.0725152 0.074034 0.0752996 0.0763353 0.0771648 0.0778133 
0.0783054 0.078665 0.0789141 0.0790728 0.0791582 0.0791849 0.0791649 0.0791081 0.0790228 
0.0789171 0.0788004 0.0786854 0.0785917 0.0785497 0.0786065 0.0788328 0.0793295 0.0802338 
0.0817193 0.0839893 0.0872576 0.0917172 0.097502 0.104647 0.113057 0.122498 0.132597 
0.142865 0.15273 0.161577 0.168795 0.173811 0.176145 0.175427 0.0725383 0.0740563 
0.0753198 0.0763522 0.0771776 0.0778215 0.0783087 0.0786634 0.078908 0.0790624 0.0791441 
0.0791676 0.0791448 0.0790854 0.0789976 0.078889 0.0787684 0.0786478 0.0785457 0.0784909 
0.0785289 0.0787286 0.0791892 0.0800472 0.0814775 0.0836873 0.0868975 0.0913119 0.0970762 
0.104237 0.112709 0.12226 0.132514 0.142973 0.153053 0.162119 0.16954 0.174725 
0.177175 0.176508 0.0725626 0.0740797 0.0753411 0.0763702 0.0771915 0.0778307 0.0783129 
0.0786628 0.0789027 0.079053 0.079131 0.0791513 0.0791257 0.0790638 0.0789736 0.0788622 
0.078738 0.0786122 0.0785019 0.078435 0.078455 0.0786287 0.0790539 0.079866 0.0812408 
0.0833892 0.0865394 0.0909056 0.096646 0.103819 0.11235 0.122009 0.132418 0.143071 
0.153368 0.162657 0.170286 0.175644 0.178213 0.177598 0.0725879 0.0741042 0.0753634 
0.0763892 0.0772064 0.0778408 0.0783181 0.0786631 0.0788984 0.0790444 0.0791188 0.0791359 