# vtk DataFile Version 5.1
vtk output
ASCII
DATASET UNSTRUCTURED_GRID
POINTS 12669 double
-50.1 0 0 -0.1 0 0 0.1 0 0 
25.1 0 0 25.1 10 0 0.1 10 0 
-0.1 10 0 -50.1 10 0 -49.447025829 0 0 
-48.801794431 0 0 -48.164214001 0 0 -47.534193818 0 0 
-46.911644227 0 0 -46.296476648 0 0 -45.688603543 0 0 
-45.087938417 0 0 -44.494395805 0 0 -43.90789125 0 0 
-43.328341294 0 0 -42.755663471 0 0 -42.189776295 0 0 
-41.630599242 0 0 -41.078052747 0 0 -40.532058186 0 0 
-39.992537867 0 0 -39.459415023 0 0 -38.932613793 0 0 
-38.412059219 0 0 -37.897677231 0 0 -37.389394634 0 0 
-36.887139106 0 0 -36.390839174 0 0 -35.900424222 0 0 
-35.415824471 0 0 -34.936970957 0 0 -34.463795547 0 0 
-33.996230916 0 0 -33.534210529 0 0 -33.077668642 0 0 
-32.626540297 0 0 -32.180761299 0 0 -31.740268219 0 0 
-31.304998377 0 0 -30.874889834 0 0 -30.449881395 0 0 
-30.029912583 0 0 -29.614923635 0 0 -29.204855504 0 0 
-28.799649841 0 0 -28.399248992 0 0 -28.00359598 0 0 
-27.612634502 0 0 -27.226308931 0 0 -26.844564298 0 0 
-26.467346282 0 0 -26.094601209 0 0 -25.726276037 0 0 
-25.362318354 0 0 -25.002676375 0 0 -24.647298925 0 0 
-24.296135438 0 0 -23.949135946 0 0 -23.606251074 0 0 
-23.267432028 0 0 -22.932630599 0 0 -22.60179915 0 0 
-22.274890601 0 0 -21.951858437 0 0 -21.632656693 0 0 
-21.317239952 0 0 -21.005563333 0 0 -20.697582484 0 0 
-20.393253579 0 0 -20.092533314 0 0 -19.795378905 0 0 
-19.501748069 0 0 -19.211599017 0 0 -18.924890469 0 0 
-18.641581628 0 0 -18.361632179 0 0 -18.085002288 0 0 
-17.811652595 0 0 -17.541544203 0 0 -17.274638676 0 0 
-17.010898038 0 0 -16.750284759 0 0 -16.492761755 0 0 
-16.238292386 0 0 -15.986840441 0 0 -15.73837014 0 0 
-15.492846127 0 0 -15.250233467 0 0 -15.010497637 0 0 
-14.773604522 0 0 -14.539520416 0 0 -14.308212012 0 0 
-14.079646394 0 0 -13.853791037 0 0 -13.630613808 0 0 
-13.41008295 0 0 -13.192167083 0 0 -12.9768352 0 0 
-12.764056659 0 0 -12.553801187 0 0 -12.346038864 0 0 
-12.140740121 0 0 -11.937875747 0 0 -11.737416881 0 0 
-11.539335 0 0 -11.343601917 0 0 -11.15018978 0 0 
-10.959071065 0 0 -10.770218579 0 0 -10.583605452 0 0 
-10.399205132 0 0 -10.216991374 0 0 -10.03693825 0 0 
-9.8590201479 0 0 -9.683211749 0 0 -9.5094880351 0 0 
-9.3378242827 0 0 -9.1681960658 0 0 -9.0005792535 0 0 
-8.8349499936 0 0 -8.6712847156 0 0 -8.5095601319 0 0 
-8.3497532322 0 0 -8.1918412761 0 0 -8.0358017916 0 0 
-7.8816125772 0 0 -7.7292516959 0 0 -7.5786974644 0 0 
-7.4299284603 0 0 -7.2829235159 0 0 -7.1376617121 0 0 
-6.9941223817 0 0 -6.8522850987 0 0 -6.7121296816 0 0 
-6.5736361876 0 0 -6.4367849066 0 0 -6.3015563697 0 0 
-6.1679313339 0 0 -6.0358907817 0 0 -5.9054159287 0 0 
-5.7764882093 0 0 -5.6490892763 0 0 -5.5232010041 0 0 
-5.3988054792 0 0 -5.2758849997 0 0 -5.1544220747 0 0 
-5.0343994192 0 0 -4.915799958 0 0 -4.7986068166 0 0 
-4.6828033163 0 0 -4.5683729784 0 0 -4.4552995239 0 0 
-4.3435668643 0 0 -4.2331590971 0 0 -4.1240605105 0 0 
-4.016255583 0 0 -3.9097289743 0 0 -3.8044655262 0 0 
-3.7004502618 0 0 -3.5976683776 0 0 -3.4961052517 0 0 
-3.3957464319 0 0 -3.2965776352 0 0 -3.1985847571 0 0 
-3.1017538501 0 0 -3.006071133 0 0 -2.911522996 0 0 
-2.8180959831 0 0 -2.7257767973 0 0 -2.6345523061 0 0 
-2.5444095283 0 0 -2.4553356352 0 0 -2.3673179555 0 0 
-2.2803439674 0 0 -2.1944012905 0 0 -2.1094776961 0 0 
-2.0255611029 0 0 -1.9426395651 0 0 -1.8607012872 0 0 
-1.7797346108 0 0 -1.6997280122 0 0 -1.6206701073 0 0 
-1.5425496489 0 0 -1.4653555233 0 0 -1.3890767423 0 0 
-1.3137024497 0 0 -1.2392219223 0 0 -1.1656245665 0 0 
-1.0928999071 0 0 -1.0210375925 0 0 -0.95002740126 0 0 
-0.87985922981 0 0 -0.81052308986 0 0 -0.74200911888 0 0 
-0.67430756817 0 0 -0.60740880042 0 0 -0.54130330004 0 0 
-0.47598166168 0 0 -0.41143458748 0 0 -0.34765289347 0 0 
-0.28462750229 0 0 -0.22234944532 0 0 -0.16080986428 0 0 
-0.075 0 0 -0.05 0 0 -0.025 0 0 
-2.6574575873e-13 0 0 0.025 0 0 0.05 0 0 
0.075 0 0 0.15779696894 0 0 0.21703886108 0 0 
0.27776180117 0 0 0.340002814 0 0 0.40379985127 0 0 
0.46919181481 0 0 0.53621857657 0 0 0.60492100866 0 0 
0.67534100109 0 0 0.74752148987 0 0 0.82150649092 0 0 
0.89734111706 0 0 0.97507160995 0 0 1.0547453643 0 0 
1.1364109627 0 0 1.2201182027 0 0 1.3059181251 0 0 
1.3938630446 0 0 1.4840065849 0 0 1.5764037133 0 0 
1.6711107699 0 0 1.7681855044 0 0 1.86768711 0 0 
1.9696762586 0 0 2.0742151333 0 0 2.1813674765 0 0 
2.2911986267 0 0 2.4037755563 0 0 2.5191669124 0 0 
2.6374430544 0 0 2.7586760979 0 0 2.8829399663 0 0 
3.0103104305 0 0 3.1408651546 0 0 3.2746837503 0 0 
3.4118478133 0 0 3.5524409773 0 0 3.6965489696 0 0 
3.8442596609 0 0 3.9956631168 0 0 4.1508516574 0 0 
4.3099199146 0 0 4.4729648788 0 0 4.6400859659 0 0 
4.8113850794 0 0 4.9869666698 0 0 5.1669378027 0 0 
5.3514082154 0 0 5.5404903866 0 0 5.7342996132 0 0 
5.9329540737 0 0 6.1365748932 0 0 6.3452862319 0 0 
6.5592153533 0 0 6.7784927017 0 0 7.0032519874 0 0 
7.2336302578 0 0 7.4697679819 0 0 7.7118091476 0 0 
7.9599013412 0 0 8.2141958396 0 0 8.4748477034 0 0 
8.7420158642 0 0 9.0158632266 0 0 9.2965567704 0 0 
9.5842676529 0 0 9.8791713075 0 0 10.181447556 0 0 
10.491280715 0 0 10.8088597 0 0 11.134378158 0 0 
11.468034578 0 0 11.810032411 0 0 12.16058019 0 0 
12.519891663 0 0 12.888185921 0 0 13.265687534 0 0 
13.652626688 0 0 14.049239319 0 0 14.455767267 0 0 
14.872458413 0 0 15.299566839 0 0 15.737352979 0 0 
16.186083771 0 0 16.646032833 0 0 17.117480623 0 0 
17.600714604 0 0 18.096029435 0 0 18.603727139 0 0 
19.124117281 0 0 19.657517178 0 0 20.204252075 0 0 
20.764655347 0 0 21.339068701 0 0 21.927842387 0 0 
22.531335412 0 0 23.149915765 0 0 23.783960627 0 0 
24.433856613 0 0 25.1 0.25 0 25.1 0.5 0 
25.1 0.75 0 25.1 1 0 25.1 1.25 0 
25.1 1.5 0 25.1 1.75 0 25.1 2 0 
25.1 2.25 0 25.1 2.5 0 25.1 2.75 0 
25.1 3 0 25.1 3.25 0 25.1 3.5 0 
25.1 3.75 0 25.1 4 0 25.1 4.25 0 
25.1 4.5 0 25.1 4.75 0 25.1 5 0 
25.1 5.25 0 25.1 5.5 0 25.1 5.75 0 
25.1 6 0 25.1 6.25 0 25.1 6.5 0 
25.1 6.75 0 25.1 7 0 25.1 7.25 0 
25.1 7.5 0 25.1 7.75 0 25.1 8 0 
25.1 8.25 0 25.1 8.5 0 25.1 8.75 0 
25.1 9 0 25.1 9.25 0 25.1 9.5 0 
25.1 9.75 0 24.433856617 10 0 23.78396063 10 0 
23.149915768 10 0 22.531335414 10 0 21.927842388 10 0 
21.339068702 10 0 20.764655347 10 0 20.204252075 10 0 
19.657517177 10 0 19.12411728 10 0 18.603727137 10 0 
18.096029434 10 0 17.600714602 10 0 17.11748062 10 0 
16.64603283 10 0 16.186083768 10 0 15.737352976 10 0 
15.299566836 10 0 14.872458409 10 0 14.455767263 10 0 
14.049239315 10 0 13.652626683 10 0 13.265687529 10 0 
12.888185916 10 0 12.519891657 10 0 12.160580184 10 0 
11.810032405 10 0 11.468034572 10 0 11.134378152 10 0 
10.808859694 10 0 10.491280708 10 0 10.18144755 10 0 
9.8791713011 10 0 9.5842676463 10 0 9.2965567637 10 0 
9.0158632199 10 0 8.7420158574 10 0 8.4748476965 10 0 
8.2141958327 10 0 7.9599013342 10 0 7.7118091406 10 0 
7.4697679749 10 0 7.2336302507 10 0 7.0032519803 10 0 
6.7784926946 10 0 6.5592153462 10 0 6.3452862247 10 0 
6.1365748861 10 0 5.9329540665 10 0 5.734299606 10 0 
5.5404903794 10 0 5.3514082083 10 0 5.1669377955 10 0 
4.9869666627 10 0 4.8113850723 10 0 4.6400859588 10 0 
4.4729648718 10 0 4.3099199076 10 0 4.1508516504 10 0 
3.9956631098 10 0 3.844259654 10 0 3.6965489627 10 0 
3.5524409705 10 0 3.4118478065 10 0 3.2746837435 10 0 
3.1408651479 10 0 3.0103104238 10 0 2.8829399597 10 0 
2.7586760914 10 0 2.6374430479 10 0 2.519166906 10 0 
2.4037755499 10 0 2.2911986204 10 0 2.1813674703 10 0 
2.0742151271 10 0 1.9696762525 10 0 1.8676871039 10 0 
1.7681854984 10 0 1.6711107639 10 0 1.5764037074 10 0 
1.4840065791 10 0 1.3938630388 10 0 1.3059181194 10 0 
1.2201181971 10 0 1.1364109572 10 0 1.0547453588 10 0 
0.97507160451 10 0 0.89734111169 10 0 0.82150648561 10 0 
0.74752148462 10 0 0.67534099591 10 0 0.60492100349 10 0 
0.53621857153 10 0 0.46919180983 10 0 0.40379984635 10 0 
0.34000280915 10 0 0.27776179638 10 0 0.21703885635 10 0 
0.15779696428 10 0 0.075 10 0 0.05 10 0 
0.025 10 0 2.6574575873e-13 10 0 -0.025 10 0 
-0.05 10 0 -0.075 10 0 -0.16080986428 10 0 
-0.22234944532 10 0 -0.28462750229 10 0 -0.34765289346 10 0 
-0.41143458748 10 0 -0.47598166167 10 0 -0.54130330004 10 0 
-0.60740880041 10 0 -0.67430756817 10 0 -0.74200911888 10 0 
-0.81052308986 10 0 -0.87985922981 10 0 -0.95002740126 10 0 
-1.0210375925 10 0 -1.0928999071 10 0 -1.1656245665 10 0 
-1.2392219222 10 0 -1.3137024497 10 0 -1.3890767423 10 0 
-1.4653555232 10 0 -1.5425496489 10 0 -1.6206701073 10 0 
-1.6997280122 10 0 -1.7797346108 10 0 -1.8607012872 10 0 
-1.9426395651 10 0 -2.0255611028 10 0 -2.1094776961 10 0 
-2.1944012905 10 0 -2.2803439674 10 0 -2.3673179555 10 0 
-2.4553356352 10 0 -2.5444095283 10 0 -2.6345523061 10 0 
-2.7257767973 10 0 -2.8180959831 10 0 -2.911522996 10 0 
-3.006071133 10 0 -3.10175385 10 0 -3.198584757 10 0 
-3.2965776351 10 0 -3.3957464319 10 0 -3.4961052517 10 0 
-3.5976683776 10 0 -3.7004502618 10 0 -3.8044655262 10 0 
-3.9097289743 10 0 -4.0162555829 10 0 -4.1240605105 10 0 
-4.2331590971 10 0 -4.3435668642 10 0 -4.4552995239 10 0 
-4.5683729784 10 0 -4.6828033163 10 0 -4.7986068166 10 0 
-4.9157999579 10 0 -5.0343994191 10 0 -5.1544220747 10 0 
-5.2758849997 10 0 -5.3988054792 10 0 -5.5232010041 10 0 
-5.6490892763 10 0 -5.7764882093 10 0 -5.9054159286 10 0 
-6.0358907816 10 0 -6.1679313339 10 0 -6.3015563697 10 0 
-6.4367849066 10 0 -6.5736361875 10 0 -6.7121296816 10 0 
-6.8522850987 10 0 -6.9941223816 10 0 -7.137661712 10 0 
-7.2829235158 10 0 -7.4299284603 10 0 -7.5786974644 10 0 
-7.7292516959 10 0 -7.8816125771 10 0 -8.0358017915 10 0 
-8.1918412761 10 0 -8.3497532322 10 0 -8.5095601319 10 0 
-8.6712847155 10 0 -8.8349499936 10 0 -9.0005792534 10 0 
-9.1681960657 10 0 -9.3378242826 10 0 -9.509488035 10 0 
-9.6832117489 10 0 -9.8590201478 10 0 -10.03693825 10 0 
-10.216991374 10 0 -10.399205132 10 0 -10.583605452 10 0 
-10.770218579 10 0 -10.959071065 10 0 -11.15018978 10 0 
-11.343601917 10 0 -11.539335 10 0 -11.737416881 10 0 
-11.937875747 10 0 -12.140740121 10 0 -12.346038863 10 0 
[...]
CELL_DATA 12320
FIELD FieldData 7
B_Stress_n_p_m2 1 12320 float
9.41764 9.76391 10.3081 11.0166 11.8586 12.8007 13.8117 14.8637 15.933 
16.9994 18.0467 19.0613 20.0326 20.9522 21.8138 22.6128 23.3463 24.0129 
24.6123 25.1454 25.6139 26.0203 26.3677 26.6594 26.8991 27.0903 27.2365 
27.3409 27.4064 27.4353 27.4297 27.391 27.32 27.2172 27.0822 26.9142 
26.7117 26.4726 26.1936 25.872 8.99228 9.34536 9.89535 10.6141 11.4684 
12.4242 13.4497 14.5166 15.6007 16.6818 17.7434 18.7717 19.756 20.6877 
21.5604 22.3695 23.1121 23.7865 24.3926 24.9314 25.4045 25.8147 26.165 
26.459 26.7004 26.8928 27.0399 27.1449 27.2109 27.2402 27.235 27.1966 
27.126 27.0235 26.8889 26.7214 26.5194 26.2807 26.0026 25.6818 8.80506 
9.16076 9.71595 10.4427 11.3068 12.2736 13.3107 14.3896 15.4858 16.5789 
17.6521 18.6918 19.6869 20.6287 21.5108 22.3285 23.0786 23.7597 24.3716 
24.9152 25.3923 25.8057 26.1585 26.4543 26.6971 26.8904 27.0381 27.1435 
27.2096 27.2389 27.2336 27.195 27.1242 27.0214 26.8865 26.7186 26.5164 
26.2775 25.9991 25.6763 8.5618 8.9194 9.48062 10.2166 11.0921 12.0716 
13.1222 14.2148 15.3247 16.4315 17.518 18.5704 19.5776 20.5308 21.4234 
22.2505 23.009 23.6975 24.3156 24.8644 25.3459 25.7626 26.1181 26.4159 
26.66 26.8543 27.0026 27.1084 27.1747 27.204 27.1987 27.16 27.089 
26.9861 26.8511 26.6831 26.4808 26.242 25.9639 25.6411 8.33959 8.6987 
9.26564 10.0103 10.8966 11.8881 12.9513 14.057 15.1801 16.2999 17.3992 
18.464 19.483 20.4472 21.35 22.1863 22.9531 23.6488 24.273 24.8269 
25.3124 25.7324 26.0904 26.39 26.6354 26.8306 26.9794 27.0854 27.1518 
27.1812 27.1757 27.1369 27.0658 26.9627 26.8276 26.6595 26.4571 26.2183 
25.9403 25.6182 8.11743 8.47823 9.05109 9.80472 10.7019 11.7057 12.7818 
13.9008 15.0373 16.1704 17.2828 18.3602 19.3912 20.3668 21.2799 22.1257 
22.9008 23.6037 24.2342 24.7932 25.2828 25.7061 26.0665 26.3679 26.6145 
26.8105 26.9598 27.066 27.1325 27.1618 27.1563 27.1174 27.0462 26.943 
26.8077 26.6395 26.437 26.1983 25.9205 25.5988 7.90034 8.2629 8.8417 
9.60427 10.5124 11.5283 12.6173 13.7495 14.8994 16.0458 17.1713 18.2614 
19.3045 20.2914 21.215 22.0703 22.8538 23.564 24.2007 24.7648 25.2586 
25.6851 26.0479 26.351 26.5989 26.7956 26.9453 27.0517 27.1182 27.1475 
27.1419 27.1029 27.0315 26.9282 26.7927 26.6244 26.4219 26.1832 25.9055 
25.5843 7.68675 8.05116 8.63598 9.40755 10.3267 11.3547 12.4566 13.6021 
14.7654 15.9253 17.0639 18.1668 19.2222 20.2206 21.1548 22.0196 22.8116 
23.5292 24.1721 24.7413 25.2393 25.6689 26.0341 26.339 26.5879 26.7854 
26.9355 27.0421 27.1086 27.1378 27.1321 27.0929 27.0214 26.918 26.7824 
26.614 26.4114 26.1726 25.8951 25.5742 7.47683 7.84317 8.43408 9.21468 
10.1447 11.1849 12.2997 13.4585 14.6353 15.8087 16.9606 18.0764 19.1441 
20.1541 21.099 21.9735 22.7741 23.4991 24.1482 24.7227 25.2247 25.6575 
26.0251 26.3316 26.5817 26.7798 26.9303 27.037 27.1035 27.1327 27.1268 
27.0875 27.0159 26.9123 26.7766 26.6081 26.4054 26.1665 25.8891 25.5685 
7.27036 7.6387 8.23576 9.0254 9.96641 11.0187 12.1464 13.3185 14.5089 
15.6957 16.8611 17.9899 19.0701 20.0918 21.0476 21.9319 22.7411 23.4736 
24.1291 24.7087 25.2148 25.6508 26.0207 26.3288 26.58 26.7787 26.9295 
27.0364 27.1029 27.1319 27.1259 27.0865 27.0148 26.9111 26.7752 26.6066 
26.4037 26.1648 25.8874 25.567 7.06724 7.43764 8.04088 8.83958 9.79153 
10.856 11.9965 13.1819 14.3858 15.5864 16.7652 17.9072 19 20.0336 
21.0003 21.8945 22.7125 23.4526 24.1144 24.6992 25.2094 25.6486 26.0208 
26.3305 26.5827 26.7821 26.9332 27.0401 27.1066 27.1355 27.1294 27.0898 
27.0179 26.9141 26.7781 26.6093 26.4064 26.1674 25.8899 25.5697 6.86734 
7.23987 7.84933 8.65709 9.61994 10.6965 11.8499 13.0486 14.2661 15.4804 
16.6728 17.8282 18.9337 19.9793 20.9571 21.8613 22.6882 23.4358 24.104 
24.6941 25.2085 25.6508 26.0252 26.3366 26.5898 26.7897 26.941 27.0481 
27.1144 27.1433 27.137 27.0973 27.0253 26.9213 26.7852 26.6163 26.4132 
26.1741 25.8965 25.5765 6.67059 7.04529 7.661 8.4778 9.45152 10.5401 
11.7063 12.9183 14.1496 15.3776 16.5838 17.7526 18.871 19.9288 20.9178 
21.8321 22.668 23.4233 24.098 24.6933 25.2118 25.6572 26.0339 26.3468 
26.601 26.8015 26.9531 27.0601 27.1264 27.1552 27.1487 27.1089 27.0368 
26.9327 26.7964 26.6273 26.4241 26.1848 25.9071 25.5872 6.4769 6.85382 
7.47579 8.3016 9.28613 10.3867 11.5656 12.791 14.036 15.2779 16.498 
17.6803 18.8118 19.8819 20.8823 21.8069 22.6518 23.4149 24.0961 24.6966 
25.2193 25.6679 26.0468 26.3612 26.6164 26.8173 26.9691 27.0762 27.1424 
27.171 27.1644 27.1245 27.0522 26.948 26.8116 26.6424 26.439 26.1995 
25.9217 25.6018 6.2862 6.66539 7.29362 8.1284 9.12366 10.2361 11.4278 
12.6666 13.9253 15.1812 16.4152 17.6113 18.756 19.8386 20.8504 21.7855 
22.6395 23.4105 24.0982 24.7041 25.2309 25.6826 26.0638 26.3797 26.6357 
26.8372 26.9891 27.0962 27.1623 27.1907 27.184 27.1439 27.0715 26.9672 
26.8307 26.6614 26.4578 26.2181 25.9401 25.6201 6.09844 6.47992 7.1144 
7.9581 8.96402 10.0883 11.2927 12.5448 13.8173 15.0873 16.3354 17.5453 
18.7034 19.7986 20.8222 21.7677 22.631 23.41 24.1043 24.7155 25.2465 
25.7013 26.0847 26.4021 26.659 26.8609 27.013 27.12 27.186 27.2143 
27.2074 27.1672 27.0947 26.9903 26.8537 26.6842 26.4804 26.2405 25.9623 
25.6423 5.91357 6.29738 6.93808 7.79061 8.8071 9.94313 11.1602 12.4256 
13.7119 14.9961 16.2584 17.4824 18.654 19.762 20.7974 21.7536 22.6263 
23.4133 24.1143 24.7309 25.2661 25.7239 26.1095 26.4283 26.6861 26.8884 
27.0406 27.1476 27.2135 27.2416 27.2346 27.1942 27.1216 27.0171 26.8804 
26.7107 26.5067 26.2667 25.9882 25.668 5.73155 6.11769 6.76459 7.62588 
8.65282 9.80048 11.0301 12.3088 13.609 14.9075 16.1842 17.4223 18.6077 
19.7287 20.776 21.743 22.6252 23.4203 24.1281 24.7501 25.2894 25.7504 
26.1381 26.4583 26.7169 26.9196 27.072 27.1789 27.2445 27.2725 27.2653 
27.2249 27.1522 27.0475 26.9107 26.7409 26.5367 26.2965 26.0177 25.6973 
5.55235 5.94084 6.59388 7.46382 8.50108 9.66028 10.9024 12.1944 13.5086 
14.8213 16.1126 17.3651 18.5643 19.6984 20.758 21.7359 22.6277 23.431 
24.1455 24.773 25.3165 25.7806 26.1705 26.4921 26.7514 26.9545 27.1069 
27.2137 27.2792 27.307 27.2997 27.2591 27.1863 27.0816 26.9447 26.7747 
26.5704 26.3298 26.0508 25.7302 5.37594 5.76679 6.4259 7.30437 8.35182 
9.52242 10.7769 12.0822 13.4104 14.7376 16.0435 17.3105 18.5238 19.6713 
20.7431 21.7322 22.6337 23.4453 24.1667 24.7996 25.3474 25.8145 26.2065 
26.5294 26.7895 26.9929 27.1453 27.252 27.3174 27.345 27.3375 27.2968 
27.2239 27.1192 26.9822 26.8121 26.6075 26.3667 26.0874 25.7665 5.2023 
5.5955 6.26061 7.14748 8.20496 9.38682 10.6536 11.9722 13.3144 14.6562 
15.9768 17.2585 18.4862 19.6471 20.7314 21.7317 22.6431 23.4631 24.1914 
24.8299 25.3818 25.852 26.2461 26.5703 26.8311 27.0348 27.1873 27.2938 
27.359 27.3864 27.3787 27.338 27.265 27.1602 27.0232 26.8529 26.6482 
26.4071 26.1274 25.8062 5.03143 5.42696 6.09798 6.9931 8.06042 9.25341 
10.5325 11.8643 13.2205 14.5769 15.9125 17.2091 18.4512 19.6259 20.7228 
21.7345 22.6559 23.4843 24.2197 24.8637 25.4198 25.8931 26.2893 26.6148 
26.8762 27.0802 27.2326 27.339 27.4039 27.4311 27.4234 27.3825 27.3095 
27.2046 27.0675 26.8972 26.6922 26.4508 26.1707 25.8492 4.86331 5.26115 
5.93797 6.84116 7.91816 9.12211 10.4133 11.7583 13.1287 14.4998 15.8505 
17.1622 18.4189 19.6075 20.7173 21.7405 22.672 23.509 24.2514 24.901 
25.4614 25.9377 26.3359 26.6626 26.9247 27.1289 27.2813 27.3875 27.4522 
27.4792 27.4713 27.4303 27.3573 27.2524 27.1152 26.9448 26.7396 26.4979 
26.2174 25.8955 4.69796 5.09807 5.78057 6.69164 7.7781 8.99284 10.2961 
11.6542 13.0387 14.4248 15.7907 17.1176 18.3892 19.5918 20.7147 21.7496 
22.6913 23.537 24.2865 24.9417 25.5064 25.9857 26.3859 26.7139 26.9766 
27.1809 27.3333 27.4392 27.5037 27.5305 27.5224 27.4814 27.4083 27.3034 
27.1662 26.9957 26.7903 26.5483 26.2674 25.945 4.53536 4.93771 5.62574 
6.54449 7.6402 8.86554 10.1807 11.552 12.9507 14.3517 15.733 17.0753 
18.362 19.5789 20.715 21.7618 22.7139 23.5684 24.325 24.9859 25.5548 
26.0371 26.4393 26.7685 27.0317 27.2362 27.3884 27.4942 27.5584 27.585 
27.5768 27.5356 27.4626 27.3577 27.2205 27.0498 26.8442 26.6019 26.3205 
25.9977 4.37554 4.78007 5.47347 6.39967 7.50439 8.74014 10.0671 11.4515 
12.8644 14.2805 15.6774 17.0353 18.3372 19.5687 20.7182 21.777 22.7396 
23.6029 24.3668 25.0333 25.6065 26.0918 26.496 26.8263 27.0901 27.2947 
27.4468 27.5523 27.6162 27.6426 27.6342 27.593 27.52 27.4151 27.2779 
27.1071 26.9014 26.6587 26.3769 26.0535 4.2185 4.62515 5.32374 6.25715 
7.37063 8.61659 9.95517 11.3526 12.7798 14.2111 15.6238 16.9975 18.3149 
19.561 20.7241 21.7952 22.7684 23.6407 24.4119 25.0841 25.6615 26.1499 
26.556 26.8874 27.1517 27.3563 27.5082 27.6135 27.6771 27.7032 27.6947 
27.6535 27.5804 27.4756 27.3384 27.1676 26.9616 26.7186 26.4363 26.1124 
4.06427 4.47295 5.17655 6.11689 7.23886 8.49481 9.84491 11.2554 12.6969 
14.1435 15.572 16.9618 18.2949 19.556 20.7328 21.8163 22.8002 23.6816 
24.4602 25.1381 25.7198 26.2111 26.6191 26.9516 27.2163 27.421 27.5727 
27.6777 27.741 27.7669 27.7583 27.717 27.6439 27.5391 27.4019 27.2311 
27.025 26.7816 26.4988 26.1743 3.91286 4.32349 5.03188 5.97888 7.10904 
8.37475 9.73624 11.1597 12.6155 14.0776 15.5222 16.9282 18.2771 19.5534 
20.7442 21.8402 22.8351 23.7257 24.5117 25.1954 25.7813 26.2756 26.6855 
27.0189 27.2841 27.4888 27.6402 27.7448 27.8079 27.8335 27.8247 27.7834 
27.7104 27.6057 27.4685 27.2976 27.0913 26.8476 26.5643 26.2392 3.7643 
4.17679 4.88972 5.84306 6.98113 8.25636 9.62908 11.0654 12.5357 14.0133 
15.4741 16.8965 18.2616 19.5532 20.7583 21.867 22.8729 23.7728 24.5662 
25.2558 25.8459 26.3431 26.7549 27.0893 27.3548 27.5595 27.7107 27.8149 
27.8776 27.903 27.8941 27.8528 27.7798 27.6752 27.5381 27.3671 27.1607 
26.9166 26.6328 26.307 3.61863 4.03284 4.75007 5.70944 6.85509 8.13959 
9.52337 10.9726 12.4573 13.9505 15.4278 16.8669 18.2483 19.5555 20.7749 
21.8966 22.9137 23.8229 24.6239 25.3193 25.9137 26.4138 26.8273 27.1627 
27.4286 27.6331 27.784 27.8879 27.9502 27.9754 27.9663 27.9249 27.8521 
27.7475 27.6105 27.4396 27.2329 26.9886 26.7041 26.3777 3.47586 3.89169 
4.61293 5.57797 6.73088 8.02437 9.41907 10.8811 12.3803 13.8893 15.3831 
16.8391 18.2371 19.5601 20.7941 21.9288 22.9573 23.8759 24.6846 25.3858 
25.9845 26.4875 26.9028 27.2391 27.5052 27.7096 27.8602 27.9636 28.0256 
28.0505 28.0413 27.9999 27.9271 27.8227 27.6858 27.5148 27.308 27.0633 
26.7783 26.4512 3.33604 3.75333 4.47829 5.44864 6.60844 7.91067 9.3161 
10.7908 12.3046 13.8295 15.3401 16.8131 18.228 19.567 20.8159 21.9638 
23.0037 23.932 24.7483 25.4554 26.0583 26.5642 26.9812 27.3183 27.5847 
27.7889 27.9391 28.0421 28.1037 28.1283 28.119 28.0776 28.0049 27.9006 
27.7638 27.5929 27.386 27.1409 26.8553 26.5275 3.19921 3.61781 4.34616 
5.32143 6.48776 7.79842 9.21442 10.7018 12.2301 13.771 15.2986 16.7889 
18.2208 19.5761 20.84 22.0014 23.0529 23.9908 24.8149 25.5279 26.1351 
26.6438 27.0625 27.4004 27.6669 27.871 28.0207 28.1233 28.1845 28.2088 
28.1994 28.158 28.0854 27.9813 27.8446 27.6737 27.4666 27.2212 26.9351 
26.6064 3.0654 3.48513 4.21654 5.19631 6.36879 7.68759 9.11396 10.614 
12.1568 13.7139 15.2586 16.7664 18.2157 19.5875 20.8666 22.0416 23.1049 
24.0526 24.8844 25.6033 26.2148 26.7263 27.1466 27.4853 27.7519 27.9557 
28.105 28.2071 28.2679 28.2919 28.2823 28.241 28.1685 28.0645 27.928 
27.7572 27.55 27.3042 27.0175 26.6881 2.93465 3.35533 4.08943 5.07328 
6.2515 7.57813 9.01468 10.5272 12.0847 13.658 15.22 16.7456 18.2124 
19.6009 20.8955 22.0844 23.1595 24.1171 24.9568 25.6816 26.2973 26.8116 
27.2335 27.5729 27.8396 28.043 28.1919 28.2934 28.3538 28.3775 28.3678 
28.3265 28.2541 28.1504 28.014 27.8432 27.6359 27.3899 27.1025 26.7723 
2.807 3.22843 3.96483 4.9523 6.13585 7.46999 8.91652 10.4415 12.0136 
13.6034 15.1829 16.7264 18.211 19.6165 20.9268 22.1296 23.2168 24.1843 
25.0319 25.7627 26.3827 26.8997 27.3231 27.6631 27.9298 28.133 28.2812 
28.3823 28.4422 28.4656 28.4558 28.4145 28.3423 28.2387 28.1025 27.9318 
27.7244 27.4781 27.19 26.859 2.68251 3.10446 3.84275 4.83336 6.0218 
7.36313 8.81943 10.3568 11.9436 13.5498 15.147 16.7088 18.2113 19.6341 
20.9603 22.1772 23.2766 24.2542 25.1098 25.8466 26.4707 26.9904 27.4154 
27.756 28.0226 28.2253 28.3731 28.4735 28.5329 28.5561 28.5461 28.5048 
28.4328 28.3295 28.1935 28.0229 27.8154 27.5687 27.2801 26.9482 2.56121 
2.98344 3.72318 4.71645 5.90934 7.25749 8.72335 10.273 11.8745 13.4973 
15.1124 16.6926 18.2134 19.6537 20.996 22.2273 23.339 24.3267 25.1903 
25.9331 26.5614 27.0838 27.5102 27.8513 28.1179 28.3202 28.4673 28.5671 
28.626 28.6488 28.6387 28.5975 28.5256 28.4226 28.2868 28.1163 27.9088 
27.6618 27.3725 27.0398 2.44315 2.86541 3.60614 4.60155 5.79841 7.15304 
8.62823 10.19 11.8063 13.4459 15.079 16.6779 18.2172 19.6751 21.0338 
22.2797 23.4038 24.4018 25.2735 26.0223 26.6548 27.1797 27.6075 27.9491 
28.2155 28.4173 28.5637 28.6629 28.7214 28.7438 28.7336 28.6924 28.6208 
28.5179 28.3824 28.2121 28.0045 27.7572 27.4673 27.1336 2.32837 2.75038 
3.49163 4.48864 5.689 7.04974 8.53402 10.1079 11.7389 13.3953 15.0467 
16.6645 18.2226 19.6985 21.0737 22.3343 23.471 24.4794 25.3592 26.114 
26.7506 27.2782 27.7073 28.0493 28.3155 28.5167 28.6624 28.761 28.8188 
28.841 28.8306 28.7895 28.718 28.6155 28.4802 28.3101 28.1025 27.8548 
27.5643 27.2297 2.21692 2.6384 3.37965 4.3777 5.58106 6.94753 8.44066 
10.0265 11.6723 13.3457 15.0155 16.6524 18.2295 19.7236 21.1156 22.3911 
23.5406 24.5594 25.4473 26.2082 26.8489 27.379 27.8093 28.1517 28.4177 
28.6182 28.7633 28.8611 28.9184 28.9402 28.9297 28.8886 28.8174 28.7151 
28.5801 28.4102 28.2026 27.9546 27.6634 27.328 2.10885 2.52947 3.27021 
4.26872 5.47457 6.84637 8.3481 9.94584 11.6063 13.2968 14.9853 16.6415 
18.2379 19.7504 21.1594 22.45 23.6124 24.6418 25.5379 26.3048 26.9496 
27.4821 27.9137 28.2563 28.522 28.7219 28.8661 28.9632 29.0199 29.0413 
29.0307 28.9897 28.9187 28.8167 28.6821 28.5123 28.3047 28.0565 27.7647 
27.4283 2.0042 2.42364 3.1633 4.16169 5.36949 6.74622 8.25629 9.86576 
11.541 13.2487 14.9559 16.6317 18.2476 19.7789 21.2051 22.511 23.6864 
24.7264 25.6308 26.4037 27.0525 27.5875 28.0202 28.363 28.6283 28.8275 
28.9709 29.0672 29.1234 29.1444 29.1336 29.0927 29.0219 28.9203 28.7859 
28.6164 28.4088 28.1603 27.8679 27.5305 1.90302 2.32092 3.05892 4.05657 
5.26578 6.64703 8.16517 9.78624 11.4763 13.2012 14.9274 16.623 18.2587 
19.8089 21.2526 22.574 23.7626 24.8132 25.7259 26.5048 27.1577 27.695 
28.1288 28.4718 28.7366 28.935 29.0775 29.173 29.2285 29.2492 29.2383 
29.1974 29.1269 29.0256 28.8916 28.7223 28.5148 28.266 27.9729 27.6346 
1.80533 2.22133 2.95709 3.95336 5.16343 6.54875 8.07467 9.70721 11.412 
13.1543 14.8997 16.6153 18.271 19.8404 21.3018 22.6389 23.8407 24.9022 
25.8231 26.608 27.2649 27.8046 28.2393 28.5824 28.8467 29.0442 29.1859 
29.2806 29.3354 29.3557 29.3446 29.3039 29.2336 29.1326 28.999 28.83 
28.6225 28.3735 28.0798 27.7405 1.71119 2.12489 2.85779 3.85203 5.06238 
6.45134 7.98475 9.6286 11.3481 13.1079 14.8726 16.6085 18.2845 19.8733 
21.3527 22.7055 23.9208 24.9931 25.9224 26.7133 27.3742 27.916 28.3518 
28.6948 28.9585 29.1552 29.2958 29.3897 29.4439 29.4637 29.4525 29.4118 
29.3418 29.2413 29.108 28.9392 28.7318 28.4826 28.1883 27.848 1.62064 
2.03163 2.76102 3.75256 4.9626 6.35475 7.89533 9.55034 11.2846 13.0619 
14.8461 16.6025 18.299 19.9076 21.405 22.7739 24.0027 25.086 26.0237 
26.8206 27.4853 28.0293 28.4659 28.8089 29.0719 29.2676 29.4073 29.5002 
29.5537 29.5731 29.5618 29.5212 29.4515 29.3513 29.2185 29.05 28.8427 
28.5933 28.2983 27.9571 1.53369 1.94156 2.66679 3.65494 4.86407 6.25893 
7.80637 9.47236 11.2213 13.0162 14.8201 16.5972 18.3145 19.943 21.4587 
22.8438 24.0864 25.1807 26.1268 26.9296 27.5982 28.1443 28.5817 28.9245 
29.1868 29.3815 29.5201 29.6121 29.6649 29.6839 29.6724 29.6319 29.5625 
29.4627 29.3303 29.1622 28.955 28.7054 28.4098 28.0676 1.45039 1.85469 
2.57507 3.55914 4.76673 6.16382 7.71778 9.39457 11.1581 12.9707 14.7944 
16.5925 18.3308 19.9795 21.5138 22.9153 24.1717 25.2771 26.2316 27.0404 
27.7127 28.2609 28.699 29.0416 29.3031 29.4967 29.6342 29.7253 29.7773 
29.7958 29.7842 29.7438 29.6747 29.5753 29.4434 29.2756 29.0685 28.8187 
28.5226 28.1793 1.37075 1.77102 2.48588 3.46514 4.67056 6.06937 7.62951 
9.3169 11.095 12.9254 14.7691 16.5883 18.3479 20.017 21.5701 22.9881 
24.2585 25.375 26.338 27.1527 27.8288 28.379 28.8176 29.1599 29.4205 
29.6131 29.7495 29.8395 29.8908 29.9089 29.897 29.8568 29.7879 29.689 
29.5575 29.3901 29.1832 28.9333 28.6365 28.2923 1.29481 1.69058 2.39919 
3.37291 4.57551 5.97553 7.54148 9.23927 11.0319 12.8801 14.7439 16.5845 
18.3656 20.0553 21.6275 23.0623 24.3466 25.4745 26.4459 27.2665 27.9463 
28.4983 28.9375 29.2794 29.5391 29.7305 29.8657 29.9547 30.0052 30.0228 
30.0108 29.9706 29.9021 29.8037 29.6727 29.5057 29.2989 29.0489 28.7515 
28.4063 1.22258 1.61335 2.31499 3.28243 4.48155 5.88224 7.45362 9.16158 
10.9686 12.8347 14.7188 16.5809 18.3838 20.0945 21.6859 23.1376 24.4361 
25.5752 26.5551 27.3816 28.065 28.6189 29.0586 29.4 29.6587 29.8488 
29.9828 30.0707 30.1204 30.1375 30.1254 30.0853 30.0172 29.9192 29.7887 
29.6221 29.4156 29.1654 28.8674 28.5213 1.15406 1.53934 2.23327 3.19367 
4.38862 5.78945 7.36586 9.08375 10.9051 12.7891 14.6936 16.5775 18.4024 
20.1342 21.7451 23.2139 24.5267 25.6772 26.6656 27.4979 28.1849 28.7405 
29.1805 29.5214 29.779 29.9679 30.1005 30.1874 30.2363 30.2529 30.2406 
30.2007 30.1329 30.0354 29.9054 29.7392 29.5329 29.2826 28.9842 28.637 
1.08927 1.46853 2.15402 3.1066 4.2967 5.69709 7.27812 9.0057 10.8413 
12.7432 14.6683 16.5742 18.4212 20.1745 21.8051 23.2911 24.6184 25.7803 
26.7771 27.6152 28.3057 28.863 29.3033 29.6436 29.9 30.0875 30.2189 
30.3046 30.3528 30.3689 30.3563 30.3166 30.2491 30.1521 30.0226 29.8569 
29.6509 29.4006 29.1015 28.7534 1.0282 1.40093 2.07722 3.0212 4.20574 
5.6051 7.19033 8.92732 10.777 12.6969 14.6426 16.5707 18.4403 20.2152 
21.8656 23.3691 24.7109 25.8843 26.8896 27.7335 28.4274 28.9862 29.4268 
29.7663 30.0216 30.2077 30.3377 30.4223 30.4696 30.4852 30.4725 30.4328 
30.3657 30.2692 30.1403 29.9751 29.7694 29.519 29.2195 28.8703 0.97083 
1.33652 2.00284 2.93744 4.11568 5.51343 7.10241 8.84852 10.7122 12.65 
14.6166 16.567 18.4593 20.2561 21.9267 23.4477 24.8042 25.9891 27.003 
27.8525 28.5498 29.1101 29.5508 29.8896 30.1435 30.3282 30.4568 30.5402 
30.5866 30.6017 30.5889 30.5493 30.4826 30.3867 30.2583 30.0937 29.8882 
29.6378 29.3378 28.9877 0.917156 1.27528 1.93087 2.85529 4.0265 5.42202 
7.01428 8.76921 10.6468 12.6025 14.59 16.563 18.4782 20.2972 21.988 
23.5269 24.8981 26.0946 27.1169 27.9722 28.6728 29.2345 29.6752 30.0131 
30.2657 30.4488 30.5761 30.6583 30.7038 30.7184 30.7054 30.666 30.5996 
30.5042 30.3765 30.2124 30.0073 29.7569 29.4564 29.1053 0.867146 1.21717 
1.86129 2.77471 3.93815 5.3308 6.92585 8.68929 10.5805 12.5542 14.5627 
16.5585 18.4969 20.3382 22.0496 23.6064 24.9925 26.2007 27.2315 28.0924 
28.7961 29.3592 29.7998 30.1367 30.388 30.5696 30.6953 30.7763 30.821 
30.8351 30.8219 30.7826 30.7167 30.6218 30.4948 30.3312 30.1265 29.8761 
29.5751 29.2231 0.820764 1.16219 1.79406 2.69568 3.85059 5.23972 6.83706 
8.60867 10.5134 12.5051 14.5346 16.5534 18.5152 20.3791 22.1112 23.6861 
25.0873 26.3071 27.3464 28.2129 28.9198 29.484 29.9245 30.2604 30.5102 
30.6902 30.8145 30.8943 30.938 30.9516 30.9382 30.8991 30.8336 30.7393 
30.6129 30.4499 30.2456 29.9952 29.6938 29.3409 0.777967 1.11028 1.72917 
2.61818 3.76378 5.14872 6.74784 8.52725 10.4453 12.4549 14.5057 16.5475 
18.5329 20.4197 22.1728 23.766 25.1822 26.4138 27.4616 28.3336 29.0435 
29.6089 30.0492 30.384 30.6322 30.8106 30.9334 31.0119 31.0548 31.0678 
31.0543 31.0154 30.9502 30.8566 30.7309 30.5685 30.3646 30.1143 29.8125 
29.4586 0.738699 1.06142 1.6666 2.54218 3.67768 5.05775 6.6581 8.44495 
10.3762 12.4035 14.4756 16.5408 18.5501 20.4599 22.2342 23.8458 25.2773 
26.5207 27.5769 28.4544 29.1673 29.7337 30.1737 30.5074 30.754 30.9307 
31.0519 31.1292 31.1712 31.1837 31.17 31.1312 31.0666 30.9735 30.8485 
30.6868 30.4833 30.2332 29.931 29.5761 0.702895 1.01556 1.6063 2.46765 