# vtk DataFile Version 5.1
vtk output
ASCII
DATASET UNSTRUCTURED_GRID
POINTS 12669 double
-50.1 0 0 -0.1 0 0 0.1 0 0 
25.1 0 0 25.1 10 0 0.1 10 0 
-0.1 10 0 -50.1 10 0 -49.447025829 0 0 
-48.801794431 0 0 -48.164214001 0 0 -47.534193818 0 0 
-46.911644227 0 0 -46.296476648 0 0 -45.688603543 0 0 
-45.087938417 0 0 -44.494395805 0 0 -43.90789125 0 0 
-43.328341294 0 0 -42.755663471 0 0 -42.189776295 0 0 
-41.630599242 0 0 -41.078052747 0 0 -40.532058186 0 0 
-39.992537867 0 0 -39.459415023 0 0 -38.932613793 0 0 
-38.412059219 0 0 -37.897677231 0 0 -37.389394634 0 0 
-36.887139106 0 0 -36.390839174 0 0 -35.900424222 0 0 
-35.415824471 0 0 -34.936970957 0 0 -34.463795547 0 0 
-33.996230916 0 0 -33.534210529 0 0 -33.077668642 0 0 
-32.626540297 0 0 -32.180761299 0 0 -31.740268219 0 0 
-31.304998377 0 0 -30.874889834 0 0 -30.449881395 0 0 
-30.029912583 0 0 -29.614923635 0 0 -29.204855504 0 0 
-28.799649841 0 0 -28.399248992 0 0 -28.00359598 0 0 
-27.612634502 0 0 -27.226308931 0 0 -26.844564298 0 0 
-26.467346282 0 0 -26.094601209 0 0 -25.726276037 0 0 
-25.362318354 0 0 -25.002676375 0 0 -24.647298925 0 0 
-24.296135438 0 0 -23.949135946 0 0 -23.606251074 0 0 
-23.267432028 0 0 -22.932630599 0 0 -22.60179915 0 0 
-22.274890601 0 0 -21.951858437 0 0 -21.632656693 0 0 
-21.317239952 0 0 -21.005563333 0 0 -20.697582484 0 0 
-20.393253579 0 0 -20.092533314 0 0 -19.795378905 0 0 
-19.501748069 0 0 -19.211599017 0 0 -18.924890469 0 0 
-18.641581628 0 0 -18.361632179 0 0 -18.085002288 0 0 
-17.811652595 0 0 -17.541544203 0 0 -17.274638676 0 0 
-17.010898038 0 0 -16.750284759 0 0 -16.492761755 0 0 
-16.238292386 0 0 -15.986840441 0 0 -15.73837014 0 0 
-15.492846127 0 0 -15.250233467 0 0 -15.010497637 0 0 
-14.773604522 0 0 -14.539520416 0 0 -14.308212012 0 0 
-14.079646394 0 0 -13.853791037 0 0 -13.630613808 0 0 
-13.41008295 0 0 -13.192167083 0 0 -12.9768352 0 0 
-12.764056659 0 0 -12.553801187 0 0 -12.346038864 0 0 
-12.140740121 0 0 -11.937875747 0 0 -11.737416881 0 0 
-11.539335 0 0 -11.343601917 0 0 -11.15018978 0 0 
-10.959071065 0 0 -10.770218579 0 0 -10.583605452 0 0 
-10.399205132 0 0 -10.216991374 0 0 -10.03693825 0 0 
-9.8590201479 0 0 -9.683211749 0 0 -9.5094880351 0 0 
-9.3378242827 0 0 -9.1681960658 0 0 -9.0005792535 0 0 
-8.8349499936 0 0 -8.6712847156 0 0 -8.5095601319 0 0 
-8.3497532322 0 0 -8.1918412761 0 0 -8.0358017916 0 0 
-7.8816125772 0 0 -7.7292516959 0 0 -7.5786974644 0 0 
-7.4299284603 0 0 -7.2829235159 0 0 -7.1376617121 0 0 
-6.9941223817 0 0 -6.8522850987 0 0 -6.7121296816 0 0 
-6.5736361876 0 0 -6.4367849066 0 0 -6.3015563697 0 0 
-6.1679313339 0 0 -6.0358907817 0 0 -5.9054159287 0 0 
-5.7764882093 0 0 -5.6490892763 0 0 -5.5232010041 0 0 
-5.3988054792 0 0 -5.2758849997 0 0 -5.1544220747 0 0 
-5.0343994192 0 0 -4.915799958 0 0 -4.7986068166 0 0 
-4.6828033163 0 0 -4.5683729784 0 0 -4.4552995239 0 0 
-4.3435668643 0 0 -4.2331590971 0 0 -4.1240605105 0 0 
-4.016255583 0 0 -3.9097289743 0 0 -3.8044655262 0 0 
-3.7004502618 0 0 -3.5976683776 0 0 -3.4961052517 0 0 
-3.3957464319 0 0 -3.2965776352 0 0 -3.1985847571 0 0 
-3.1017538501 0 0 -3.006071133 0 0 -2.911522996 0 0 
-2.8180959831 0 0 -2.7257767973 0 0 -2.6345523061 0 0 
-2.5444095283 0 0 -2.4553356352 0 0 -2.3673179555 0 0 
-2.2803439674 0 0 -2.1944012905 0 0 -2.1094776961 0 0 
-2.0255611029 0 0 -1.9426395651 0 0 -1.8607012872 0 0 
-1.7797346108 0 0 -1.6997280122 0 0 -1.6206701073 0 0 
-1.5425496489 0 0 -1.4653555233 0 0 -1.3890767423 0 0 
-1.3137024497 0 0 -1.2392219223 0 0 -1.1656245665 0 0 
-1.0928999071 0 0 -1.0210375925 0 0 -0.95002740126 0 0 
-0.87985922981 0 0 -0.81052308986 0 0 -0.74200911888 0 0 
-0.67430756817 0 0 -0.60740880042 0 0 -0.54130330004 0 0 
-0.47598166168 0 0 -0.41143458748 0 0 -0.34765289347 0 0 
-0.28462750229 0 0 -0.22234944532 0 0 -0.16080986428 0 0 
-0.075 0 0 -0.05 0 0 -0.025 0 0 
-2.6574575873e-13 0 0 0.025 0 0 0.05 0 0 
0.075 0 0 0.15779696894 0 0 0.21703886108 0 0 
0.27776180117 0 0 0.340002814 0 0 0.40379985127 0 0 
0.46919181481 0 0 0.53621857657 0 0 0.60492100866 0 0 
0.67534100109 0 0 0.74752148987 0 0 0.82150649092 0 0 
0.89734111706 0 0 0.97507160995 0 0 1.0547453643 0 0 
1.1364109627 0 0 1.2201182027 0 0 1.3059181251 0 0 
1.3938630446 0 0 1.4840065849 0 0 1.5764037133 0 0 
1.6711107699 0 0 1.7681855044 0 0 1.86768711 0 0 
1.9696762586 0 0 2.0742151333 0 0 2.1813674765 0 0 
2.2911986267 0 0 2.4037755563 0 0 2.5191669124 0 0 
2.6374430544 0 0 2.7586760979 0 0 2.8829399663 0 0 
3.0103104305 0 0 3.1408651546 0 0 3.2746837503 0 0 
3.4118478133 0 0 3.5524409773 0 0 3.6965489696 0 0 
3.8442596609 0 0 3.9956631168 0 0 4.1508516574 0 0 
4.3099199146 0 0 4.4729648788 0 0 4.6400859659 0 0 
4.8113850794 0 0 4.9869666698 0 0 5.1669378027 0 0 
5.3514082154 0 0 5.5404903866 0 0 5.7342996132 0 0 
5.9329540737 0 0 6.1365748932 0 0 6.3452862319 0 0 
6.5592153533 0 0 6.7784927017 0 0 7.0032519874 0 0 
7.2336302578 0 0 7.4697679819 0 0 7.7118091476 0 0 
7.9599013412 0 0 8.2141958396 0 0 8.4748477034 0 0 
8.7420158642 0 0 9.0158632266 0 0 9.2965567704 0 0 
9.5842676529 0 0 9.8791713075 0 0 10.181447556 0 0 
10.491280715 0 0 10.8088597 0 0 11.134378158 0 0 
11.468034578 0 0 11.810032411 0 0 12.16058019 0 0 
12.519891663 0 0 12.888185921 0 0 13.265687534 0 0 
13.652626688 0 0 14.049239319 0 0 14.455767267 0 0 
14.872458413 0 0 15.299566839 0 0 15.737352979 0 0 
16.186083771 0 0 16.646032833 0 0 17.117480623 0 0 
17.600714604 0 0 18.096029435 0 0 18.603727139 0 0 
19.124117281 0 0 19.657517178 0 0 20.204252075 0 0 
20.764655347 0 0 21.339068701 0 0 21.927842387 0 0 
22.531335412 0 0 23.149915765 0 0 23.783960627 0 0 
24.433856613 0 0 25.1 0.25 0 25.1 0.5 0 
25.1 0.75 0 25.1 1 0 25.1 1.25 0 
25.1 1.5 0 25.1 1.75 0 25.1 2 0 
25.1 2.25 0 25.1 2.5 0 25.1 2.75 0 
25.1 3 0 25.1 3.25 0 25.1 3.5 0 
25.1 3.75 0 25.1 4 0 25.1 4.25 0 
25.1 4.5 0 25.1 4.75 0 25.1 5 0 
25.1 5.25 0 25.1 5.5 0 25.1 5.75 0 
25.1 6 0 25.1 6.25 0 25.1 6.5 0 
25.1 6.75 0 25.1 7 0 25.1 7.25 0 
25.1 7.5 0 25.1 7.75 0 25.1 8 0 
25.1 8.25 0 25.1 8.5 0 25.1 8.75 0 
25.1 9 0 25.1 9.25 0 25.1 9.5 0 
25.1 9.75 0 24.433856617 10 0 23.78396063 10 0 
23.149915768 10 0 22.531335414 10 0 21.927842388 10 0 
21.339068702 10 0 20.764655347 10 0 20.204252075 10 0 
19.657517177 10 0 19.12411728 10 0 18.603727137 10 0 
18.096029434 10 0 17.600714602 10 0 17.11748062 10 0 
16.64603283 10 0 16.186083768 10 0 15.737352976 10 0 
15.299566836 10 0 14.872458409 10 0 14.455767263 10 0 
14.049239315 10 0 13.652626683 10 0 13.265687529 10 0 
12.888185916 10 0 12.519891657 10 0 12.160580184 10 0 
11.810032405 10 0 11.468034572 10 0 11.134378152 10 0 
10.808859694 10 0 10.491280708 10 0 10.18144755 10 0 
9.8791713011 10 0 9.5842676463 10 0 9.2965567637 10 0 
9.0158632199 10 0 8.7420158574 10 0 8.4748476965 10 0 
8.2141958327 10 0 7.9599013342 10 0 7.7118091406 10 0 
7.4697679749 10 0 7.2336302507 10 0 7.0032519803 10 0 
6.7784926946 10 0 6.5592153462 10 0 6.3452862247 10 0 
6.1365748861 10 0 5.9329540665 10 0 5.734299606 10 0 
5.5404903794 10 0 5.3514082083 10 0 5.1669377955 10 0 
4.9869666627 10 0 4.8113850723 10 0 4.6400859588 10 0 
4.4729648718 10 0 4.3099199076 10 0 4.1508516504 10 0 
3.9956631098 10 0 3.844259654 10 0 3.6965489627 10 0 
3.5524409705 10 0 3.4118478065 10 0 3.2746837435 10 0 
3.1408651479 10 0 3.0103104238 10 0 2.8829399597 10 0 
2.7586760914 10 0 2.6374430479 10 0 2.519166906 10 0 
2.4037755499 10 0 2.2911986204 10 0 2.1813674703 10 0 
2.0742151271 10 0 1.9696762525 10 0 1.8676871039 10 0 
1.7681854984 10 0 1.6711107639 10 0 1.5764037074 10 0 
1.4840065791 10 0 1.3938630388 10 0 1.3059181194 10 0 
1.2201181971 10 0 1.1364109572 10 0 1.0547453588 10 0 
0.97507160451 10 0 0.89734111169 10 0 0.82150648561 10 0 
0.74752148462 10 0 0.67534099591 10 0 0.60492100349 10 0 
0.53621857153 10 0 0.46919180983 10 0 0.40379984635 10 0 
0.34000280915 10 0 0.27776179638 10 0 0.21703885635 10 0 
0.15779696428 10 0 0.075 10 0 0.05 10 0 
0.025 10 0 2.6574575873e-13 10 0 -0.025 10 0 
-0.05 10 0 -0.075 10 0 -0.16080986428 10 0 
-0.22234944532 10 0 -0.28462750229 10 0 -0.34765289346 10 0 
-0.41143458748 10 0 -0.47598166167 10 0 -0.54130330004 10 0 
-0.60740880041 10 0 -0.67430756817 10 0 -0.74200911888 10 0 
-0.81052308986 10 0 -0.87985922981 10 0 -0.95002740126 10 0 
-1.0210375925 10 0 -1.0928999071 10 0 -1.1656245665 10 0 
-1.2392219222 10 0 -1.3137024497 10 0 -1.3890767423 10 0 
-1.4653555232 10 0 -1.5425496489 10 0 -1.6206701073 10 0 
-1.6997280122 10 0 -1.7797346108 10 0 -1.8607012872 10 0 
-1.9426395651 10 0 -2.0255611028 10 0 -2.1094776961 10 0 
-2.1944012905 10 0 -2.2803439674 10 0 -2.3673179555 10 0 
-2.4553356352 10 0 -2.5444095283 10 0 -2.6345523061 10 0 
-2.7257767973 10 0 -2.8180959831 10 0 -2.911522996 10 0 
-3.006071133 10 0 -3.10175385 10 0 -3.198584757 10 0 
-3.2965776351 10 0 -3.3957464319 10 0 -3.4961052517 10 0 
-3.5976683776 10 0 -3.7004502618 10 0 -3.8044655262 10 0 
-3.9097289743 10 0 -4.0162555829 10 0 -4.1240605105 10 0 
-4.2331590971 10 0 -4.3435668642 10 0 -4.4552995239 10 0 
-4.5683729784 10 0 -4.6828033163 10 0 -4.7986068166 10 0 
-4.9157999579 10 0 -5.0343994191 10 0 -5.1544220747 10 0 
-5.2758849997 10 0 -5.3988054792 10 0 -5.5232010041 10 0 
-5.6490892763 10 0 -5.7764882093 10 0 -5.9054159286 10 0 
-6.0358907816 10 0 -6.1679313339 10 0 -6.3015563697 10 0 
-6.4367849066 10 0 -6.5736361875 10 0 -6.7121296816 10 0 
-6.8522850987 10 0 -6.9941223816 10 0 -7.137661712 10 0 
-7.2829235158 10 0 -7.4299284603 10 0 -7.5786974644 10 0 
-7.7292516959 10 0 -7.8816125771 10 0 -8.0358017915 10 0 
-8.1918412761 10 0 -8.3497532322 10 0 -8.5095601319 10 0 
-8.6712847155 10 0 -8.8349499936 10 0 -9.0005792534 10 0 
-9.1681960657 10 0 -9.3378242826 10 0 -9.509488035 10 0 
-9.6832117489 10 0 -9.8590201478 10 0 -10.03693825 10 0 
-10.216991374 10 0 -10.399205132 10 0 -10.583605452 10 0 
-10.770218579 10 0 -10.959071065 10 0 -11.15018978 10 0 
-11.343601917 10 0 -11.539335 10 0 -11.737416881 10 0 
-11.937875747 10 0 -12.140740121 10 0 -12.346038863 10 0 
[...]
CELL_DATA 12320
FIELD FieldData 7
B_Stress_n_p_m2 1 12320 float
0.019516 0.0200091 0.0204412 0.0208208 0.0211511 0.021441 0.0216985 0.0219378 0.0221772 
0.0224454 0.0227842 0.023257 0.0239565 0.025016 0.0266198 0.0290098 0.0324671 0.0372747 
0.0436999 0.05196 0.0621995 0.0744775 0.088765 0.104948 0.122835 0.142166 0.162617 
0.183819 0.205359 0.226796 0.247668 0.267503 0.285835 0.302201 0.316172 0.327332 
0.33534 0.339839 0.340646 0.337414 0.019598 0.0200896 0.0205196 0.0208942 0.0212175 
0.0214967 0.0217398 0.0219592 0.022172 0.0224044 0.0226953 0.0231032 0.0237148 0.0246566 
0.0261077 0.0283134 0.0315673 0.0361621 0.0423848 0.0504744 0.0605942 0.0728192 0.0871315 
0.103424 0.121507 0.141118 0.161929 0.183561 0.20559 0.227559 0.248991 0.269398 
0.288291 0.305194 0.319654 0.331248 0.339602 0.34438 0.34533 0.342216 0.0196583 
0.0201516 0.0205845 0.020962 0.021289 0.0215719 0.0218189 0.0220417 0.0222566 0.0224886 
0.0227743 0.0231693 0.0237558 0.0246546 0.0260378 0.0281445 0.0312718 0.0357252 0.0418005 
0.0497518 0.0597574 0.071905 0.0861858 0.102498 0.120654 0.140389 0.161375 0.183224 
0.205506 0.227757 0.24949 0.270205 0.289404 0.3066 0.321329 0.333157 0.3417 
0.346617 0.347641 0.344553 0.0197227 0.0202167 0.0206486 0.0210237 0.0213465 0.0216232 
0.0218615 0.0220722 0.0222706 0.02248 0.0227348 0.0230871 0.0236148 0.024433 0.0257071 
0.0276687 0.0306238 0.0348931 0.0407823 0.0485649 0.0584389 0.0705081 0.084776 0.101148 
0.11944 0.139387 0.160654 0.182848 0.205527 0.228214 0.250409 0.271597 0.291264 
0.308906 0.324044 0.33623 0.345065 0.350199 0.351353 0.348298 0.0198059 0.0203018 
0.0207359 0.0211132 0.0214381 0.0217166 0.0219558 0.022166 0.0223616 0.0225642 0.0228061 
0.023136 0.0236275 0.0243897 0.0255812 0.0274253 0.0302239 0.0343188 0.0400238 0.0476294 
0.0573538 0.0693173 0.083537 0.0999271 0.118307 0.138413 0.159906 0.182385 0.205401 
0.228466 0.251066 0.272672 0.292754 0.310796 0.326301 0.338809 0.347906 0.353233 
0.354499 0.351474 0.0198735 0.0203705 0.0208049 0.0211814 0.0215043 0.0217794 0.0220135 
0.0222162 0.0224011 0.0225882 0.0228079 0.0231059 0.0235519 0.0242491 0.0253502 0.0270701 
0.0297059 0.0336174 0.0391303 0.046552 0.0561216 0.0679777 0.0821522 0.0985689 0.117053 
0.137339 0.159086 0.181887 0.205281 0.228768 0.25182 0.273892 0.294439 0.312926 
0.328841 0.341708 0.3511 0.356643 0.358038 0.355047 0.019964 0.0204628 0.0208988 
0.0212766 0.0216004 0.0218756 0.0221087 0.0223087 0.0224883 0.0226662 0.0228707 0.0231447 
0.0235537 0.0241954 0.0252155 0.0268213 0.0293016 0.0330273 0.0383435 0.0455716 0.0549714 
0.0667016 0.08081 0.0972316 0.115797 0.136244 0.158226 0.181331 0.205088 0.228985 
0.252479 0.27501 0.296016 0.314945 0.331269 0.344495 0.35418 0.35994 0.361463 
0.358507 0.0200395 0.0205398 0.0209766 0.0213544 0.0216773 0.0219506 0.0221803 0.0223751 
0.0225468 0.0227129 0.0228998 0.0231479 0.0235185 0.0241047 0.025045 0.0265398 0.0288696 
0.032405 0.0375232 0.0445538 0.0537778 0.0653762 0.0794131 0.0958362 0.114483 0.135091 
0.157315 0.180732 0.204865 0.229187 0.25314 0.276149 0.297634 0.317024 0.333774 
0.347375 0.357368 0.363356 0.365015 0.362094 0.0201322 0.0206343 0.0210725 0.0214511 
0.0217743 0.0220469 0.0222749 0.0224664 0.0226323 0.0227891 0.0229614 0.023187 0.0235234 
0.0240588 0.0249244 0.0263139 0.0284982 0.0318445 0.0367598 0.0435849 0.052622 0.064075 
0.0780257 0.0944356 0.113149 0.133909 0.156364 0.180088 0.204593 0.229338 0.253753 
0.277243 0.299211 0.319069 0.336253 0.350235 0.360542 0.366762 0.36856 0.365678 
0.0202153 0.020719 0.0211583 0.0215374 0.0218601 0.0221315 0.022357 0.0225443 0.0227039 
0.022851 0.0230086 0.0232122 0.0235156 0.0240023 0.024797 0.0260855 0.0281298 0.0312912 
0.0360002 0.0426158 0.0514594 0.0627587 0.0766146 0.0930031 0.111778 0.132683 0.155368 
0.1794 0.20428 0.229456 0.25434 0.278321 0.300785 0.321122 0.338751 0.353126 
0.363756 0.370216 0.372158 0.369316 0.0203095 0.020815 0.0212556 0.0216354 0.0219582 
0.0222288 0.0224524 0.0226364 0.0227905 0.0229292 0.0230737 0.0232571 0.0235302 0.0239714 
0.0246992 0.0258914 0.0278016 0.0307821 0.0352797 0.0416803 0.0503221 0.0614561 0.0752047 
0.0915595 0.110384 0.131427 0.154335 0.17867 0.203924 0.229531 0.254888 0.279368 
0.302333 0.323159 0.341241 0.356016 0.366977 0.373683 0.375773 0.372974 0.0203986 
0.020906 0.0213478 0.0217282 0.0220508 0.0223204 0.0225421 0.0227227 0.0228714 0.0230018 
0.0231338 0.0232982 0.0235427 0.023941 0.0246058 0.0257063 0.0274887 0.0302959 0.0345764 
0.0407598 0.0491936 0.0601529 0.0737842 0.090095 0.10896 0.130133 0.15326 0.177897 
0.203525 0.229568 0.255404 0.280388 0.303865 0.325187 0.343733 0.358918 0.370218 
0.377176 0.379419 0.376664 0.0204948 0.021004 0.0214471 0.0218282 0.0221509 0.0224197 
0.0226396 0.0228171 0.022961 0.0230838 0.0232043 0.0233511 0.023569 0.0239271 0.0245325 
0.025546 0.0272057 0.0298445 0.033909 0.0398696 0.0480873 0.0588616 0.072364 0.0886191 
0.107514 0.128808 0.152147 0.177082 0.203084 0.229563 0.255882 0.281377 0.305373 
0.327202 0.346219 0.361824 0.37347 0.380686 0.383087 0.380377 0.0205888 0.0210999 
0.0215443 0.0219261 0.0222488 0.0225169 0.0227351 0.0229097 0.0230489 0.0231646 0.0232743 
0.0234046 0.0235977 0.0239182 0.0244676 0.0253989 0.0269414 0.0294178 0.0332695 0.039002 
0.0469971 0.0575775 0.0709401 0.0871285 0.106044 0.12745 0.150995 0.176224 0.2026 
0.229518 0.256324 0.282337 0.306859 0.329203 0.348702 0.364734 0.376735 0.384216 
0.386777 0.384116 0.0206874 0.0212004 0.0216461 0.0220287 0.0223515 0.0226188 0.0228355 
0.0230073 0.0231423 0.0232513 0.0233509 0.023466 0.0236358 0.0239212 0.0244179 0.0252714 
0.0267018 0.0290222 0.0326654 0.0381633 0.0459295 0.0563068 0.0695181 0.0856281 0.104552 
0.126062 0.149806 0.175325 0.202073 0.22943 0.256728 0.283264 0.308321 0.331188 
0.351178 0.367646 0.38001 0.387762 0.390489 0.387878 0.0207856 0.0213006 0.0217477 
0.0221309 0.0224538 0.0227206 0.0229357 0.023105 0.0232358 0.0233387 0.0234289 0.0235298 
0.0236779 0.0239305 0.0243776 0.0251578 0.0264813 0.0286526 0.0320949 0.037349 0.0448824 
0.0550486 0.0680972 0.0841174 0.103039 0.124643 0.148579 0.174384 0.201502 0.229301 
0.257094 0.28416 0.309759 0.333158 0.353648 0.370561 0.383295 0.391324 0.394222 
0.391663 0.0208868 0.0214038 0.0218523 0.0222364 0.0225594 0.0228255 0.0230392 0.0232061 
0.0233331 0.0234302 0.0235116 0.0235993 0.0237272 0.0239491 0.0243496 0.0250606 0.0262823 
0.0283104 0.0315575 0.0365664 0.0438604 0.0538063 0.0666808 0.0825992 0.101507 0.123195 
0.147315 0.173401 0.200888 0.229129 0.257421 0.285022 0.311171 0.335111 0.356109 
0.373477 0.386589 0.394903 0.397975 0.39547 0.0209887 0.0215077 0.0219576 0.0223425 
0.0226656 0.0229312 0.0231436 0.0233081 0.0234315 0.0235232 0.0235965 0.0236718 0.0237809 
0.0239742 0.024331 0.0249768 0.0261019 0.0279928 0.0310505 0.0358158 0.0428631 0.0525798 
0.0652694 0.081074 0.0999559 0.121718 0.146015 0.172377 0.20023 0.228914 0.257709 
0.285851 0.312557 0.337047 0.358563 0.376393 0.389891 0.398496 0.401748 0.3993 
0.0210929 0.0216139 0.0220653 0.022451 0.0227743 0.0230394 0.0232504 0.0234127 0.0235327 
0.0236193 0.0236849 0.0237488 0.0238403 0.0240069 0.0243228 0.024907 0.0259407 0.0277 
0.0305748 0.0350999 0.0418922 0.0513715 0.0638655 0.079544 0.0983886 0.120214 0.144679 
0.171311 0.199528 0.228656 0.257956 0.286645 0.313916 0.338964 0.361007 0.379309 
0.393202 0.402104 0.405541 0.403151 0.0211981 0.0217212 0.0221741 0.0225606 0.0228841 
0.0231486 0.0233584 0.0235186 0.0236354 0.0237172 0.0237757 0.0238288 0.023904 0.0240456 
0.0243234 0.0248495 0.0257968 0.0274301 0.0301294 0.0344199 0.0409471 0.0501821 0.0624706 
0.0780104 0.0968056 0.118683 0.143308 0.170205 0.198782 0.228354 0.258162 0.287403 
0.315247 0.340862 0.363441 0.382225 0.396521 0.405727 0.409352 0.407024 0.0213052 
0.0218305 0.0222848 0.0226721 0.0229958 0.0232599 0.0234685 0.0236267 0.0237404 0.0238176 
0.0238694 0.0239124 0.0239725 0.0240907 0.0243328 0.0248042 0.0256698 0.0271827 0.0297137 
0.0337774 0.040029 0.0490137 0.0610867 0.0764749 0.0952084 0.117127 0.141902 0.169057 
0.197992 0.228007 0.258328 0.288126 0.316549 0.34274 0.365865 0.385139 0.399846 
0.409364 0.413183 0.410919 0.0214137 0.021941 0.0223968 0.022785 0.0231089 0.0233726 
0.02358 0.0237362 0.0238469 0.0239198 0.0239654 0.0239991 0.024045 0.0241414 0.0243502 
0.0247701 0.0255586 0.0269569 0.0293257 0.033168 0.0391434 0.0478685 0.0597148 0.074939 
0.0935981 0.115546 0.140463 0.167869 0.197158 0.227617 0.258452 0.288813 0.317823 
0.344598 0.368278 0.388052 0.403179 0.413015 0.417033 0.414835 0.0215238 0.0220533 
0.0225106 0.0228996 0.0232237 0.0234869 0.0236932 0.0238475 0.0239554 0.0240242 0.0240639 
0.0240888 0.0241215 0.0241976 0.0243752 0.024747 0.0254626 0.026752 0.0289648 0.0325919 
0.0382919 0.0467476 0.0583565 0.0734044 0.0919762 0.113942 0.13899 0.166641 0.19628 
0.227182 0.258533 0.289462 0.319066 0.346435 0.37068 0.390963 0.406518 0.41668 
0.420901 0.418772 0.0216352 0.0221669 0.0226257 0.0230157 0.02334 0.0236027 0.0238079 
0.0239603 0.0240655 0.0241305 0.0241645 0.0241812 0.0242016 0.0242588 0.0244073 0.024734 
0.0253807 0.0265667 0.0286298 0.0320486 0.0374766 0.0456515 0.0570132 0.0718727 0.090344 
0.112315 0.137484 0.165372 0.195358 0.226701 0.258572 0.290074 0.32028 0.34825 
0.37307 0.393872 0.409864 0.420358 0.424788 0.42273 0.0217482 0.0222821 0.0227425 
0.0231333 0.0234578 0.0237201 0.0239242 0.0240748 0.0241774 0.0242386 0.0242673 0.0242763 
0.0242852 0.0243249 0.024446 0.0247305 0.0253121 0.0264004 0.0283198 0.0315381 0.0366995 
0.0445804 0.0556862 0.070346 0.088703 0.110668 0.135947 0.164064 0.194392 0.226176 
0.258567 0.290648 0.321462 0.350043 0.375447 0.396777 0.413216 0.424049 0.428694 
0.426709 0.0218627 0.0223988 0.0228607 0.0232523 0.0235771 0.0238389 0.0240419 0.0241907 
0.0242907 0.0243484 0.0243721 0.0243739 0.024372 0.0243953 0.0244909 0.0247359 0.0252562 
0.0262519 0.0280337 0.0310592 0.0359622 0.0435352 0.0543776 0.068826 0.0870547 0.109 
0.134378 0.162717 0.193381 0.225605 0.258519 0.291183 0.322612 0.351814 0.377811 
0.39968 0.416573 0.427754 0.432618 0.43071 0.0219785 0.0225169 0.0229804 0.0233729 
0.0236978 0.0239592 0.0241611 0.0243082 0.0244057 0.0244599 0.0244789 0.0244739 0.0244619 
0.0244699 0.0245416 0.0247498 0.0252123 0.0261204 0.0277709 0.0306101 0.0352598 0.0425226 
0.0530899 0.0673138 0.0854004 0.107313 0.132779 0.161331 0.192326 0.224988 0.258427 
0.291678 0.323731 0.353561 0.380162 0.402579 0.419937 0.431472 0.436561 0.434731 
0.0220958 0.0226364 0.0231014 0.0234949 0.0238199 0.0240809 0.0242816 0.024427 0.0245221 
0.024573 0.0245874 0.024576 0.0245546 0.0245483 0.0245979 0.0247715 0.0251799 0.0260051 
0.0275306 0.0301901 0.0345926 0.0415442 0.0518245 0.065811 0.0837418 0.105608 0.13115 
0.159906 0.191228 0.224325 0.25829 0.292133 0.324816 0.355284 0.382498 0.405473 
0.423305 0.435203 0.440523 0.438774 0.0222145 0.0227574 0.023224 0.0236183 0.0239435 
0.024204 0.0244036 0.0245473 0.02464 0.0246877 0.0246978 0.0246803 0.02465 0.0246305 
0.0246594 0.0248007 0.0251583 0.0259051 0.0273116 0.0297983 0.0339605 0.0406028 0.0505818 
0.064319 0.0820805 0.103887 0.129494 0.158444 0.190086 0.223616 0.258108 0.292548 
0.325868 0.356982 0.38482 0.408364 0.426678 0.438947 0.444502 0.442838 0.0223345 
0.0228797 0.0233479 0.023743 0.0240685 0.0243284 0.024527 0.0246689 0.0247593 0.0248039 
0.0248098 0.0247866 0.024748 0.024716 0.0247256 0.0248366 0.0251467 0.0258194 0.0271131 
0.0294335 0.0333633 0.0397001 0.0493627 0.0628392 0.0804185 0.10215 0.127809 0.156944 
0.1889 0.22286 0.257881 0.292922 0.326886 0.358656 0.387127 0.411249 0.430056 
0.442704 0.4485 0.446923 0.022456 0.0230035 0.0234732 0.0238692 0.0241948 0.0244542 
0.0246517 0.0247919 0.0248799 0.0249215 0.0249234 0.0248947 0.0248484 0.0248046 0.0247964 
0.024879 0.0251447 0.0257472 0.026934 0.0290946 0.0328006 0.0388404 0.0481656 0.0613733 
0.0787577 0.1004 0.126098 0.155407 0.18767 0.222059 0.257608 0.293254 0.327869 
0.360303 0.389419 0.41413 0.433439 0.446473 0.452517 0.45103 0.0225787 0.0231286 
0.0235999 0.0239967 0.0243224 0.0245814 0.0247777 0.0249162 0.0250019 0.0250404 0.0250385 
0.0250046 0.024951 0.0248963 0.0248714 0.0249275 0.0251515 0.025688 0.0267734 0.0287809 
0.0322703 0.0380186 0.0469985 0.0599244 0.0770993 0.0986372 0.124362 0.153834 0.186397 
0.22121 0.257289 0.293544 0.328817 0.361925 0.391694 0.417004 0.436825 0.450255 
0.456551 0.455157 0.0227028 0.0232551 0.023728 0.0241256 0.0244514 0.0247098 0.0249049 
0.0250417 0.0251251 0.0251608 0.0251551 0.0251163 0.0250557 0.0249908 0.0249503 0.0249818 
0.0251668 0.0256411 0.0266305 0.0284919 0.0317714 0.0372338 0.0458643 0.0584944 0.0754447 
0.0968632 0.1226 0.152225 0.185081 0.220315 0.256923 0.293791 0.329729 0.363519 
0.393953 0.419873 0.440216 0.454048 0.460604 0.459306 0.0228282 0.0233828 0.0238573 
0.0242558 0.0245817 0.0248395 0.0250335 0.0251685 0.0252497 0.0252824 0.0252732 0.0252295 
0.0251624 0.025088 0.0250329 0.0250414 0.0251899 0.0256059 0.0265044 0.0282263 0.0313034 
0.0364859 0.0447657 0.0570843 0.0737953 0.0950796 0.120816 0.150582 0.183722 0.219373 
0.256511 0.293995 0.330605 0.365086 0.396194 0.422735 0.443611 0.457855 0.464676 
0.463476 0.022955 0.0235119 0.023988 0.0243873 0.0247133 0.0249705 0.0251632 0.0252965 
0.0253754 0.0254053 0.0253925 0.0253444 0.0252711 0.0251876 0.025119 0.025106 0.0252204 
0.0255816 0.026394 0.0279833 0.0308652 0.0357751 0.0437056 0.0556947 0.0721527 0.0932881 
0.119008 0.148904 0.182321 0.218384 0.256052 0.294155 0.331443 0.366625 0.398418 
0.425591 0.447008 0.461673 0.468765 0.467668 0.023083 0.0236424 0.02412 0.0245201 
0.0248461 0.0251027 0.0252942 0.0254257 0.0255023 0.0255295 0.0255132 0.0254607 0.0253815 
0.0252897 0.0252082 0.0251753 0.0252576 0.0255677 0.0262984 0.0277617 0.0304555 0.0351014 
0.0426862 0.0543263 0.0705182 0.0914906 0.11718 0.147194 0.180877 0.217348 0.255545 
0.294271 0.332244 0.368135 0.400624 0.428439 0.450409 0.465503 0.472873 0.471881 
0.0232122 0.0237741 0.0242533 0.0246542 0.0249802 0.0252361 0.0254264 0.0255561 0.0256304 
0.0256548 0.0256352 0.0255784 0.0254936 0.0253939 0.0253005 0.0252489 0.0253013 0.0255634 
0.0262169 0.0275606 0.0300732 0.0344643 0.0417126 0.0529773 0.0688936 0.089689 0.115332 
0.14545 0.179392 0.216265 0.25499 0.294342 0.333006 0.369616 0.402811 0.43128 
0.453813 0.469344 0.476998 0.476115 0.0233428 0.023907 0.0243879 0.0247895 0.0251156 
0.0253708 0.0255598 0.0256877 0.0257597 0.0257813 0.0257583 0.0256975 0.0256073 0.0255002 
0.0253955 0.0253267 0.025351 0.0255682 0.026149 0.0273792 0.0297179 0.0338615 0.0407779 
0.0516576 0.0672826 0.0878844 0.113464 0.143675 0.177865 0.215136 0.254387 0.294369 
0.333729 0.371067 0.404979 0.434113 0.45722 0.473198 0.481142 0.480371 0.0234746 
0.0240413 0.0245237 0.0249261 0.0252521 0.0255066 0.0256943 0.0258203 0.02589 0.0259089 
0.0258827 0.0258179 0.0257226 0.0256084 0.0254933 0.0254083 0.0254065 0.0255816 0.0260939 
0.0272164 0.0293889 0.0332922 0.0398819 0.0503701 0.0656869 0.086078 0.11158 0.141869 
0.176297 0.213959 0.253735 0.294349 0.334413 0.372488 0.407127 0.436937 0.460628 
0.477063 0.485305 0.484648 0.0236076 0.0241768 0.0246608 0.0250639 0.0253899 0.0256436 
0.0258299 0.0259541 0.0260215 0.0260376 0.0260082 0.0259396 0.0258394 0.0257185 0.0255936 
0.0254935 0.0254673 0.025603 0.026051 0.0270714 0.029085 0.0327558 0.0390246 0.0491178 
0.0641079 0.0842715 0.109679 0.140033 0.174689 0.212736 0.253035 0.294283 0.335057 
0.373877 0.409254 0.439753 0.464039 0.480939 0.489485 0.488947 0.0237419 0.0243135 
0.0247991 0.0252029 0.0255288 0.0257818 0.0259667 0.026089 0.026154 0.0261674 0.0261348 
0.0260624 0.0259575 0.0258303 0.0256963 0.0255821 0.0255331 0.0256319 0.0260195 0.0269431 
0.0288052 0.0322514 0.0382063 0.0479038 0.0625461 0.0824662 0.107763 0.138167 0.17304 
0.211466 0.252287 0.294171 0.335661 0.375235 0.411361 0.442559 0.467452 0.484827 
0.493683 0.493267 0.0238773 0.0244514 0.0249386 0.0253431 0.0256689 0.0259211 0.0261045 
0.0262249 0.0262876 0.0262982 0.0262625 0.0261864 0.026077 0.0259438 0.0258011 0.0256737 
0.0256036 0.0256678 0.0259987 0.0268307 0.0285486 0.031778 0.0374274 0.046731 0.061002 
0.0806635 0.105835 0.136274 0.171352 0.210149 0.251489 0.294011 0.336223 0.37656 
0.413447 0.445355 0.470866 0.488726 0.4979 0.497609 0.024014 0.0245906 0.0250793 
0.0254845 0.0258102 0.0260615 0.0262435 0.0263619 0.0264221 0.0264301 0.0263912 0.0263116 
0.0261978 0.0260588 0.0259081 0.0257682 0.0256785 0.0257102 0.025988 0.0267331 0.028314 
0.0313341 0.0366876 0.0456036 0.0594752 0.078865 0.103895 0.134354 0.169626 0.208786 
0.250642 0.293804 0.336743 0.377853 0.41551 0.448142 0.474282 0.492635 0.502134 
0.501973 0.0241519 0.024731 0.0252212 0.0256271 0.0259526 0.026203 0.0263835 0.0264999 
0.0265577 0.0265629 0.026521 0.0264378 0.0263198 0.0261754 0.026017 0.0258655 0.0257574 
0.0257587 0.0259869 0.0266498 0.0281005 0.030919 0.0359853 0.0445209 0.0579699 0.0770738 
0.101946 0.132407 0.167861 0.207377 0.249746 0.293549 0.337221 0.379112 0.417552 
0.450918 0.477698 0.496556 0.506386 0.506358 0.0242909 0.0248726 0.0253644 0.0257709 
0.0260962 0.0263456 0.0265246 0.0266389 0.0266943 0.0266967 0.0266517 0.026565 0.026443 
0.0262933 0.0261278 0.0259654 0.0258402 0.0258131 0.0259947 0.0265802 0.0279072 0.0305323 
0.035319 0.0434782 0.056494 0.0752928 0.0999888 0.130435 0.166059 0.205921 0.248799 
0.293246 0.337657 0.380337 0.41957 0.453682 0.481115 0.500487 0.510657 0.510765 
0.0244311 0.0250153 0.0255086 0.0259158 0.0262408 0.0264893 0.0266667 0.0267789 0.0268319 
0.0268315 0.0267835 0.0266933 0.0265673 0.0264126 0.0262403 0.0260677 0.0259265 0.025873 
0.026011 0.0265236 0.0277332 0.0301731 0.0346882 0.0424759 0.0550504 0.0735236 0.0980242 
0.12844 0.164219 0.20442 0.247804 0.292893 0.338048 0.381527 0.421564 0.456436 
0.484533 0.504429 0.514945 0.515193 0.0245725 0.0251592 0.0256541 0.0260619 0.0263866 
0.0266341 0.0268098 0.0269199 0.0269704 0.0269673 0.0269161 0.0268226 0.0266927 0.0265332 
0.0263544 0.0261723 0.0260162 0.025938 0.0260351 0.0264792 0.0275775 0.0298403 0.0340921 
0.0415142 0.0536424 0.0717674 0.0960538 0.126422 0.162344 0.202872 0.246758 0.292492 
0.338396 0.382682 0.423535 0.459177 0.48795 0.508381 0.519251 0.519644 0.0247151 
0.0253043 0.0258007 0.026209 0.0265335 0.0267799 0.0269539 0.0270619 0.0271099 0.0271039 
0.0270497 0.0269529 0.0268191 0.026655 0.0264701 0.026279 0.0261089 0.0260078 0.0260666 
0.0264463 0.027439 0.0295328 0.03353 0.0405936 0.0522733 0.0700246 0.094079 0.124383 
0.160432 0.20128 0.245662 0.292041 0.338699 0.383802 0.42548 0.461906 0.491367 
0.512343 0.523576 0.524116 0.0248588 0.0254506 0.0259485 0.0263573 0.0266815 0.0269268 
0.0270991 0.0272049 0.0272503 0.0272415 0.0271842 0.027084 0.0269466 0.026778 0.0265872 
0.0263878 0.0262046 0.026082 0.0261049 0.0264243 0.0273168 0.0292496 0.0330006 0.0397146 
0.0509467 0.0682959 0.0921011 0.122324 0.158486 0.199643 0.244516 0.29154 0.338957 
0.384884 0.427401 0.464623 0.494784 0.516316 0.527918 0.52861 0.0250036 0.025598 
0.0260974 0.0265068 0.0268305 0.0270747 0.0272452 0.0273487 0.0273916 0.0273799 0.0273196 
0.0272161 0.027075 0.0269022 0.0267058 0.0264984 0.0263029 0.0261604 0.0261496 0.0264124 
0.02721 0.0289895 0.0325025 0.0388771 0.0496668 0.0665808 0.0901218 0.120248 0.156507 
0.197962 0.24332 0.290989 0.339169 0.38593 0.429295 0.467326 0.4982 0.520298 
0.532278 0.533126 0.0251496 0.0257465 0.0262474 0.0266573 0.0269806 0.0272236 0.0273923 
0.0274936 0.0275337 0.0275192 0.0274559 0.0273491 0.0272044 0.0270274 0.0268257 0.0266108 
0.0264038 0.0262427 0.0262003 0.0264101 0.0271178 0.0287517 0.032035 0.0380796 0.0484347 
0.0648824 0.0881439 0.118156 0.154494 0.196236 0.242074 0.290387 0.339335 0.386938 
0.431164 0.470015 0.501615 0.52429 0.536655 0.537664 0.0252967 0.0258962 0.0263986 
0.0268089 0.0271318 0.0273735 0.0275404 0.0276393 0.0276768 0.0276594 0.027593 0.027483 
0.0273347 0.0271537 0.0269468 0.026725 0.0265071 0.0263287 0.0262567 0.0264169 0.0270398 
0.0285352 0.0315977 0.0373204 0.0472439 0.0632107 0.0861708 0.116048 0.152449 0.194467 